 Entering Gaussian System, Link 0=/usr/local/apps/gaussian-16.B.01/avx2/g16/g16
 Input=scan_gas.gjf
 Output=scan_gas.log
 Initial command:
 /usr/local/apps/gaussian-16.B.01/avx2/g16/l1.exe "/projectnb/cui-buchem/piskulic/Projects/empmap/trr_map/test_dir/Gau-2387804.inp" -scrdir="/projectnb/cui-buchem/piskulic/Projects/empmap/trr_map/test_dir/"
 Entering Link 1 = /usr/local/apps/gaussian-16.B.01/avx2/g16/l1.exe PID=   2387812.
  
 Copyright (c) 1988-2017, Gaussian, Inc.  All Rights Reserved.
  
 This is part of the Gaussian(R) 16 program.  It is based on
 the Gaussian(R) 09 system (copyright 2009, Gaussian, Inc.),
 the Gaussian(R) 03 system (copyright 2003, Gaussian, Inc.),
 the Gaussian(R) 98 system (copyright 1998, Gaussian, Inc.),
 the Gaussian(R) 94 system (copyright 1995, Gaussian, Inc.),
 the Gaussian 92(TM) system (copyright 1992, Gaussian, Inc.),
 the Gaussian 90(TM) system (copyright 1990, Gaussian, Inc.),
 the Gaussian 88(TM) system (copyright 1988, Gaussian, Inc.),
 the Gaussian 86(TM) system (copyright 1986, Carnegie Mellon
 University), and the Gaussian 82(TM) system (copyright 1983,
 Carnegie Mellon University). Gaussian is a federally registered
 trademark of Gaussian, Inc.
  
 This software contains proprietary and confidential information,
 including trade secrets, belonging to Gaussian, Inc.
  
 This software is provided under written license and may be
 used, copied, transmitted, or stored only in accord with that
 written license.
  
 The following legend is applicable only to US Government
 contracts under FAR:
  
                    RESTRICTED RIGHTS LEGEND
  
 Use, reproduction and disclosure by the US Government is
 subject to restrictions as set forth in subparagraphs (a)
 and (c) of the Commercial Computer Software - Restricted
 Rights clause in FAR 52.227-19.
  
 Gaussian, Inc.
 340 Quinnipiac St., Bldg. 40, Wallingford CT 06492
  
  
 ---------------------------------------------------------------
 Warning -- This program may not be used in any manner that
 competes with the business of Gaussian, Inc. or will provide
 assistance to any competitor of Gaussian, Inc.  The licensee
 of this program is prohibited from giving any competitor of
 Gaussian, Inc. access to this program.  By using this program,
 the user acknowledges that Gaussian, Inc. is engaged in the
 business of creating and licensing software in the field of
 computational chemistry and represents and warrants to the
 licensee that it is not a competitor of Gaussian, Inc. and that
 it will not use this program in any manner prohibited above.
 ---------------------------------------------------------------
  

 Cite this work as:
 Gaussian 16, Revision B.01,
 M. J. Frisch, G. W. Trucks, H. B. Schlegel, G. E. Scuseria, 
 M. A. Robb, J. R. Cheeseman, G. Scalmani, V. Barone, 
 G. A. Petersson, H. Nakatsuji, X. Li, M. Caricato, A. V. Marenich, 
 J. Bloino, B. G. Janesko, R. Gomperts, B. Mennucci, H. P. Hratchian, 
 J. V. Ortiz, A. F. Izmaylov, J. L. Sonnenberg, D. Williams-Young, 
 F. Ding, F. Lipparini, F. Egidi, J. Goings, B. Peng, A. Petrone, 
 T. Henderson, D. Ranasinghe, V. G. Zakrzewski, J. Gao, N. Rega, 
 G. Zheng, W. Liang, M. Hada, M. Ehara, K. Toyota, R. Fukuda, 
 J. Hasegawa, M. Ishida, T. Nakajima, Y. Honda, O. Kitao, H. Nakai, 
 T. Vreven, K. Throssell, J. A. Montgomery, Jr., J. E. Peralta, 
 F. Ogliaro, M. J. Bearpark, J. J. Heyd, E. N. Brothers, K. N. Kudin, 
 V. N. Staroverov, T. A. Keith, R. Kobayashi, J. Normand, 
 K. Raghavachari, A. P. Rendell, J. C. Burant, S. S. Iyengar, 
 J. Tomasi, M. Cossi, J. M. Millam, M. Klene, C. Adamo, R. Cammi, 
 J. W. Ochterski, R. L. Martin, K. Morokuma, O. Farkas, 
 J. B. Foresman, and D. J. Fox, Gaussian, Inc., Wallingford CT, 2016.
 
 ******************************************
 Gaussian 16:  ES64L-G16RevB.01 20-Dec-2017
                10-Mar-2024 
 ******************************************
 %NProcShared=1
 Will use up to    1 processors via shared memory.
 %Mem=4GB
 %chk=calc.chk
 ---------------------------------------------------------
 #n b3lyp/6-311G(d,p) empiricaldispersion=gd3 Charge Polar
 ---------------------------------------------------------
 1/18=10,28=-2,38=1,125=101,172=1/1;
 2/12=2,17=6,18=5,40=1/2;
 3/5=4,6=6,7=101,11=2,25=1,30=1,74=-5,124=31/1,2,3;
 4//1;
 5/5=2,38=5,98=1/2;
 8/6=4,10=90,11=11/1;
 10/6=1,13=10/2;
 6/7=2,8=2,9=2,10=2,28=1/1;
 99/5=1,9=1/99;
 ----------
 Water Scan
 ----------
 Symbolic Z-matrix:
 Charge =  0 Multiplicity = 1
 O                     19.39781   11.24754   17.19821 
 H                     19.43699   10.93411   17.7663 
 H                     20.22781   11.06754   16.64821 
 
 Background charge distribution read from input stream:
                          Input orientation:                          
 ---------------------------------------------------------------------
 Center     Atomic      Atomic             Coordinates (Angstroms)
 Number     Number       Type             X           Y           Z
 ---------------------------------------------------------------------
      1          8           0       19.397810   11.247540   17.198210
      2          1           0       19.436990   10.934110   17.766300
      3          1           0       20.227810   11.067540   16.648210
 ---------------------------------------------------------------------
                    Distance matrix (angstroms):
                    1          2          3
     1  O    0.000000
     2  H    0.650000   0.000000
     3  H    1.011830   1.375981   0.000000
 Stoichiometry    H2O
 Framework group  CS[SG(H2O)]
 Deg. of freedom     3
 Full point group                 CS      NOp   2
 Largest Abelian subgroup         CS      NOp   2
 Largest concise Abelian subgroup C1      NOp   1
                         Standard orientation:                         
 ---------------------------------------------------------------------
 Center     Atomic      Atomic             Coordinates (Angstroms)
 Number     Number       Type             X           Y           Z
 ---------------------------------------------------------------------
      1          8           0       -0.000000    0.099964    0.000000
      2          1           0        0.618769   -0.099096    0.000000
      3          1           0       -0.618769   -0.700614   -0.000000
 ---------------------------------------------------------------------
 Rotational constants (GHZ):        1585.0704703         466.8948635         360.6597289
 Standard basis: 6-311G(d,p) (5D, 7F)
 There are    24 symmetry adapted cartesian basis functions of A'  symmetry.
 There are     7 symmetry adapted cartesian basis functions of A"  symmetry.
 There are    23 symmetry adapted basis functions of A'  symmetry.
 There are     7 symmetry adapted basis functions of A"  symmetry.
    30 basis functions,    48 primitive gaussians,    31 cartesian basis functions
     5 alpha electrons        5 beta electrons
       nuclear repulsion energy        11.0814561324 Hartrees.
 NAtoms=    3 NActive=    3 NUniq=    3 SFac= 1.00D+00 NAtFMM=   60 NAOKFM=F Big=F
 Integral buffers will be    131072 words long.
 Raffenetti 2 integral format.
 Two-electron integral symmetry is turned on.
 Nuclear repulsion after empirical dispersion term =       11.0814521853 Hartrees.
 One-electron integrals computed using PRISM.
 NBasis=    30 RedAO= T EigKep=  6.54D-03  NBF=    23     7
 NBsUse=    30 1.00D-06 EigRej= -1.00D+00 NBFU=    23     7
 ExpMin= 1.03D-01 ExpMax= 8.59D+03 ExpMxC= 1.30D+03 IAcc=3 IRadAn=         5 AccDes= 0.00D+00
 Harris functional with IExCor=  402 and IRadAn=       5 diagonalized for initial guess.
 HarFok:  IExCor=  402 AccDes= 0.00D+00 IRadAn=         5 IDoV= 1 UseB2=F ITyADJ=14
 ICtDFT=  3500011 ScaDFX=  1.000000  1.000000  1.000000  1.000000
 FoFCou: FMM=F IPFlag=           0 FMFlag=      100000 FMFlg1=           0
         NFxFlg=           0 DoJE=T BraDBF=F KetDBF=T FulRan=T
         wScrn=  0.000000 ICntrl=       500 IOpCl=  0 I1Cent=   200000004 NGrid=           0
         NMat0=    1 NMatS0=      1 NMatT0=    0 NMatD0=    1 NMtDS0=    0 NMtDT0=    0
 Petite list used in FoFCou.
 Initial guess orbital symmetries:
       Occupied  (A') (A') (A') (A') (A")
       Virtual   (A') (A') (A') (A') (A') (A") (A') (A') (A") (A')
                 (A") (A') (A') (A') (A') (A') (A") (A') (A") (A')
                 (A') (A") (A') (A') (A')
 The electronic state of the initial guess is 1-A'.
 Keep R1 ints in memory in symmetry-blocked form, NReq=973774.
 Requested convergence on RMS density matrix=1.00D-08 within 128 cycles.
 Requested convergence on MAX density matrix=1.00D-06.
 Requested convergence on             energy=1.00D-06.
 No special actions if energy rises.
 Integral accuracy reduced to 1.0D-05 until final iterations.
 Initial convergence to 1.0D-05 achieved.  Increase integral accuracy.
 SCF Done:  E(RB3LYP) =  -76.2312678245     A.U. after   10 cycles
            NFock= 10  Conv=0.42D-08     -V/T= 1.9866
 DoSCS=F DFT=T ScalE2(SS,OS)=  1.000000  1.000000
 Range of M.O.s used for correlation:     1    30
 NBasis=    30 NAE=     5 NBE=     5 NFC=     0 NFV=     0
 NROrb=     30 NOA=     5 NOB=     5 NVA=    25 NVB=    25
          Differentiating once with respect to electric field.
                with respect to dipole field.
          Electric field/nuclear overlap derivatives assumed to be zero.
 Keep R1 ints in memory in symmetry-blocked form, NReq=972004.
          There are     3 degrees of freedom in the 1st order CPHF.  IDoFFX=0 NUNeed=     3.
      3 vectors produced by pass  0 Test12= 4.17D-15 3.33D-08 XBig12= 1.86D+00 9.18D-01.
 AX will form     3 AO Fock derivatives at one time.
      3 vectors produced by pass  1 Test12= 4.17D-15 3.33D-08 XBig12= 1.20D-01 1.66D-01.
      3 vectors produced by pass  2 Test12= 4.17D-15 3.33D-08 XBig12= 1.35D-02 5.80D-02.
      3 vectors produced by pass  3 Test12= 4.17D-15 3.33D-08 XBig12= 2.63D-04 5.61D-03.
      3 vectors produced by pass  4 Test12= 4.17D-15 3.33D-08 XBig12= 1.71D-06 5.22D-04.
      3 vectors produced by pass  5 Test12= 4.17D-15 3.33D-08 XBig12= 5.06D-09 2.47D-05.
      3 vectors produced by pass  6 Test12= 4.17D-15 3.33D-08 XBig12= 1.17D-11 1.09D-06.
      1 vectors produced by pass  7 Test12= 4.17D-15 3.33D-08 XBig12= 1.61D-14 4.24D-08.
 InvSVY:  IOpt=1 It=  1 EMax= 2.22D-16
 Solved reduced A of dimension    22 with     3 vectors.
 Isotropic polarizability for W=    0.000000        4.95 Bohr**3.
 End of Minotr F.D. properties file   721 does not exist.
 End of Minotr F.D. properties file   722 does not exist.
 End of Minotr F.D. properties file   788 does not exist.

 **********************************************************************

            Population analysis using the SCF Density.

 **********************************************************************

 Orbital symmetries:
       Occupied  (A') (A') (A') (A') (A")
       Virtual   (A') (A') (A') (A') (A') (A") (A') (A') (A") (A')
                 (A") (A') (A') (A') (A') (A') (A") (A') (A") (A')
                 (A') (A") (A') (A') (A')
 The electronic state is 1-A'.
 Alpha  occ. eigenvalues --  -19.07457  -1.09726  -0.58326  -0.37677  -0.31195
 Alpha virt. eigenvalues --    0.03539   0.12503   0.36677   0.56290   0.74730
 Alpha virt. eigenvalues --    0.75200   0.87291   1.09245   1.28942   1.31558
 Alpha virt. eigenvalues --    1.56099   1.71418   1.95391   2.01098   2.37964
 Alpha virt. eigenvalues --    2.96153   3.05678   3.44962   3.49432   3.75600
 Alpha virt. eigenvalues --    4.37558   4.83219   5.24496   6.40031  50.32673
          Condensed to atoms (all electrons):
               1          2          3
     1  O    7.746796   0.400793   0.322329
     2  H    0.400793   0.410732  -0.040288
     3  H    0.322329  -0.040288   0.476805
 Mulliken charges:
               1
     1  O   -0.469918
     2  H    0.228763
     3  H    0.241154
 Sum of Mulliken charges =  -0.00000
 Mulliken charges with hydrogens summed into heavy atoms:
               1
     1  O   -0.000000
 Electronic spatial extent (au):  <R**2>=             17.5533
 Charge=             -0.0000 electrons
 Dipole moment (field-independent basis, Debye):
    X=              0.2904    Y=             -1.9336    Z=             -0.0000  Tot=              1.9553
 Quadrupole moment (field-independent basis, Debye-Ang):
   XX=             -4.6013   YY=             -5.6604   ZZ=             -6.8812
   XY=              0.8277   XZ=             -0.0000   YZ=              0.0000
 Traceless Quadrupole moment (field-independent basis, Debye-Ang):
   XX=              1.1130   YY=              0.0539   ZZ=             -1.1669
   XY=              0.8277   XZ=             -0.0000   YZ=              0.0000
 Octapole moment (field-independent basis, Debye-Ang**2):
  XXX=              0.6272  YYY=             -1.4804  ZZZ=              0.0000  XYY=             -0.3191
  XXY=             -0.8340  XXZ=             -0.0000  XZZ=              0.2377  YZZ=             -0.3091
  YYZ=             -0.0000  XYZ=             -0.0000
 Hexadecapole moment (field-independent basis, Debye-Ang**3):
 XXXX=             -4.9361 YYYY=             -5.8675 ZZZZ=             -4.9656 XXXY=             -0.1873
 XXXZ=             -0.0000 YYYX=             -0.0114 YYYZ=             -0.0000 ZZZX=             -0.0000
 ZZZY=             -0.0000 XXYY=             -1.5315 XXZZ=             -1.7812 YYZZ=             -1.9146
 XXYZ=              0.0000 YYXZ=             -0.0000 ZZXY=             -0.1851
 N-N= 1.108145218525D+01 E-N=-2.034613102076D+02  KE= 7.726531140804D+01
 Symmetry A'   KE= 7.256607132235D+01
 Symmetry A"   KE= 4.699240085697D+00
  Exact polarizability:   5.083   1.623   5.688   0.000   0.000   4.085
 Approx polarizability:   6.285   2.300   6.755   0.000   0.000   4.343

 ----------------------------------------------------------------------

 Electric dipole moment (input orientation):
 (Debye = 10**-18 statcoulomb cm , SI units = C m)
                  (au)            (Debye)         (10**-30 SI)
   Tot        0.769289D+00      0.195534D+01      0.652230D+01
   x          0.636748D+00      0.161845D+01      0.539857D+01
   y         -0.415250D+00     -0.105546D+01     -0.352063D+01
   z          0.118005D+00      0.299938D+00      0.100049D+01

 Dipole polarizability, Alpha (input orientation).
 (esu units = cm**3 , SI units = C**2 m**2 J**-1)
 Alpha(0;0):
               (au)            (10**-24 esu)      (10**-40 SI)
   iso        0.495189D+01      0.733795D+00      0.816457D+00
   aniso      0.314058D+01      0.465386D+00      0.517812D+00
   xx         0.595411D+01      0.882308D+00      0.981700D+00
   yx        -0.295331D+00     -0.437635D-01     -0.486935D-01
   yy         0.403933D+01      0.598567D+00      0.665995D+00
   zx        -0.145244D+01     -0.215229D+00     -0.239475D+00
   zy         0.410276D+00      0.607966D-01      0.676454D-01
   zz         0.486225D+01      0.720510D+00      0.801676D+00

 First dipole hyperpolarizability, Beta (input orientation).
 ||, _|_  parallel and perpendicular components, (z) with respect to z axis,
 vector components x,y,z.  Values do not include the 1/n! factor of 1/2.
 (esu units = statvolt**-1 cm**4 , SI units = C**3 m**3 J**-2)
 Beta(0;0,0):
               (au)            (10**-30 esu)      (10**-50 SI)
   || (z)    -0.188936D+01     -0.163226D-01     -0.605797D-02
   _|_(z)    -0.629786D+00     -0.544086D-02     -0.201932D-02
   x          0.737231D+02      0.636910D+00      0.236383D+00
   y         -0.362156D+02     -0.312874D+00     -0.116120D+00
   z         -0.944679D+01     -0.816129D-01     -0.302898D-01
   ||         0.165359D+02      0.142857D+00      0.530201D-01
   xxx        0.161674D+02      0.139673D+00      0.518384D-01
   xxy       -0.381558D+01     -0.329636D-01     -0.122341D-01
   yxy        0.113700D+01      0.982279D-02      0.364563D-02
   yyy       -0.669990D+01     -0.578819D-01     -0.214823D-01
   xxz       -0.622383D+01     -0.537691D-01     -0.199559D-01
   yxz        0.249303D+01      0.215379D-01      0.799356D-02
   yyz        0.132954D+01      0.114862D-01      0.426300D-02
   zxz        0.727002D+01      0.628073D-01      0.233103D-01
   zyz       -0.155639D+01     -0.134460D-01     -0.499034D-02
   zzz        0.174536D+01      0.150785D-01      0.559625D-02

 ----------------------------------------------------------------------

 Dipole orientation:
     8         -3.78417283         47.62783903         23.85331659
     1         -4.87212186         47.79332299         24.39898657
     1         -2.41883799         47.42016293         25.17573391

 Electric dipole moment (dipole orientation):
 (Debye = 10**-18 statcoulomb cm , SI units = C m)
                  (au)            (Debye)         (10**-30 SI)
   Tot        0.769289D+00      0.195534D+01      0.652230D+01
   x          0.000000D+00      0.000000D+00      0.000000D+00
   y          0.000000D+00      0.000000D+00      0.000000D+00
   z          0.769289D+00      0.195534D+01      0.652230D+01

 Dipole polarizability, Alpha (dipole orientation).
 (esu units = cm**3 , SI units = C**2 m**2 J**-1)
 Alpha(0;0):
               (au)            (10**-24 esu)      (10**-40 SI)
   iso        0.495189D+01      0.733795D+00      0.816457D+00
   aniso      0.314058D+01      0.465386D+00      0.517812D+00
   xx         0.553898D+01      0.820792D+00      0.913254D+00
   yx        -0.221095D+00     -0.327629D-01     -0.364536D-01
   yy         0.411905D+01      0.610381D+00      0.679140D+00
   zx         0.162133D+01      0.240256D+00      0.267321D+00
   zy        -0.246614D+00     -0.365444D-01     -0.406612D-01
   zz         0.519765D+01      0.770212D+00      0.856977D+00

 First dipole hyperpolarizability, Beta (dipole orientation).
 ||, _|_  parallel and perpendicular components, (z) with respect to z axis,
 vector components x,y,z.  Values do not include the 1/n! factor of 1/2.
 (esu units = statvolt**-1 cm**4 , SI units = C**3 m**3 J**-2)
 Beta(0;0,0):
               (au)            (10**-30 esu)      (10**-50 SI)
   || (z)     0.158242D+02      0.136709D+00      0.507380D-01
   _|_(z)     0.527472D+01      0.455695D-01      0.169127D-01
   x          0.237230D+02      0.204948D+00      0.760645D-01
   y         -0.360842D+01     -0.311739D-01     -0.115699D-01
   z          0.791209D+02      0.683543D+00      0.253690D+00
   ||         0.165359D+02      0.142857D+00      0.530201D-01
   xxx        0.411234D+01      0.355274D-01      0.131856D-01
   xxy       -0.155278D+01     -0.134148D-01     -0.497876D-02
   yxy       -0.274137D+01     -0.236833D-01     -0.878981D-02
   yyy        0.134424D+01      0.116132D-01      0.431013D-02
   xxz        0.982540D+01      0.848838D-01      0.315038D-01
   yxz       -0.970981D+00     -0.838852D-02     -0.311332D-02
   yyz        0.358953D+01      0.310107D-01      0.115093D-01
   zxz        0.653669D+01      0.564719D-01      0.209590D-01
   zyz       -0.994272D+00     -0.858973D-02     -0.318800D-02
   zzz        0.129587D+02      0.111953D+00      0.415502D-01

 ----------------------------------------------------------------------

 Test job not archived.
 1\1\GINC-GEO\SP\RB3LYP\6-311G(d,p)\H2O1\PISKULIC\10-Mar-2024\0\\#n b3l
 yp/6-311G(d,p) empiricaldispersion=gd3 Charge Polar\\Water Scan\\0,1\O
 ,0,19.39781,11.24754,17.19821\H,0,19.43699,10.93411,17.7663\H,0,20.227
 81,11.06754,16.64821\\Version=ES64L-G16RevB.01\State=1-A'\HF=-76.23126
 78\RMSD=4.160e-09\Dipole=0.6367476,-0.4152495,0.1180048\Polar=5.954109
 8,-0.2953309,4.0393282,-1.4524378,0.4102759,4.8622454\HyperPolar=16.16
 73522,-3.8155773,1.137,-6.6998958,-6.2238331,2.4930325,1.3295435,7.270
 0243,-1.5563874,1.7453593\Quadrupole=0.1295746,-0.6526899,0.5231153,-0
 .1416755,-0.8060372,-0.26488\PG=CS [SG(H2O1)]\\@


 IT IS A CAPITAL MISTAKE TO THEORIZE BEFORE ONE HAS
 DATA.  INSENSIBLY ONE BEGINS TO TWIST FACTS TO SUIT
 THEORIES RATHER THAN THEORIES TO SUIT FACTS.

                                         -- SHERLOCK HOLMES
 Job cpu time:       0 days  0 hours  0 minutes  1.6 seconds.
 Elapsed time:       0 days  0 hours  0 minutes  1.6 seconds.
 File lengths (MBytes):  RWF=     17 Int=      0 D2E=      0 Chk=      2 Scr=      2
 Normal termination of Gaussian 16 at Sun Mar 10 21:53:18 2024.
 Initial command:
 /usr/local/apps/gaussian-16.B.01/avx2/g16/l1.exe "/projectnb/cui-buchem/piskulic/Projects/empmap/trr_map/test_dir/Gau-2387804.inp" -scrdir="/projectnb/cui-buchem/piskulic/Projects/empmap/trr_map/test_dir/"
 Entering Link 1 = /usr/local/apps/gaussian-16.B.01/avx2/g16/l1.exe PID=   2387815.
  
 Copyright (c) 1988-2017, Gaussian, Inc.  All Rights Reserved.
  
 This is part of the Gaussian(R) 16 program.  It is based on
 the Gaussian(R) 09 system (copyright 2009, Gaussian, Inc.),
 the Gaussian(R) 03 system (copyright 2003, Gaussian, Inc.),
 the Gaussian(R) 98 system (copyright 1998, Gaussian, Inc.),
 the Gaussian(R) 94 system (copyright 1995, Gaussian, Inc.),
 the Gaussian 92(TM) system (copyright 1992, Gaussian, Inc.),
 the Gaussian 90(TM) system (copyright 1990, Gaussian, Inc.),
 the Gaussian 88(TM) system (copyright 1988, Gaussian, Inc.),
 the Gaussian 86(TM) system (copyright 1986, Carnegie Mellon
 University), and the Gaussian 82(TM) system (copyright 1983,
 Carnegie Mellon University). Gaussian is a federally registered
 trademark of Gaussian, Inc.
  
 This software contains proprietary and confidential information,
 including trade secrets, belonging to Gaussian, Inc.
  
 This software is provided under written license and may be
 used, copied, transmitted, or stored only in accord with that
 written license.
  
 The following legend is applicable only to US Government
 contracts under FAR:
  
                    RESTRICTED RIGHTS LEGEND
  
 Use, reproduction and disclosure by the US Government is
 subject to restrictions as set forth in subparagraphs (a)
 and (c) of the Commercial Computer Software - Restricted
 Rights clause in FAR 52.227-19.
  
 Gaussian, Inc.
 340 Quinnipiac St., Bldg. 40, Wallingford CT 06492
  
  
 ---------------------------------------------------------------
 Warning -- This program may not be used in any manner that
 competes with the business of Gaussian, Inc. or will provide
 assistance to any competitor of Gaussian, Inc.  The licensee
 of this program is prohibited from giving any competitor of
 Gaussian, Inc. access to this program.  By using this program,
 the user acknowledges that Gaussian, Inc. is engaged in the
 business of creating and licensing software in the field of
 computational chemistry and represents and warrants to the
 licensee that it is not a competitor of Gaussian, Inc. and that
 it will not use this program in any manner prohibited above.
 ---------------------------------------------------------------
  

 Cite this work as:
 Gaussian 16, Revision B.01,
 M. J. Frisch, G. W. Trucks, H. B. Schlegel, G. E. Scuseria, 
 M. A. Robb, J. R. Cheeseman, G. Scalmani, V. Barone, 
 G. A. Petersson, H. Nakatsuji, X. Li, M. Caricato, A. V. Marenich, 
 J. Bloino, B. G. Janesko, R. Gomperts, B. Mennucci, H. P. Hratchian, 
 J. V. Ortiz, A. F. Izmaylov, J. L. Sonnenberg, D. Williams-Young, 
 F. Ding, F. Lipparini, F. Egidi, J. Goings, B. Peng, A. Petrone, 
 T. Henderson, D. Ranasinghe, V. G. Zakrzewski, J. Gao, N. Rega, 
 G. Zheng, W. Liang, M. Hada, M. Ehara, K. Toyota, R. Fukuda, 
 J. Hasegawa, M. Ishida, T. Nakajima, Y. Honda, O. Kitao, H. Nakai, 
 T. Vreven, K. Throssell, J. A. Montgomery, Jr., J. E. Peralta, 
 F. Ogliaro, M. J. Bearpark, J. J. Heyd, E. N. Brothers, K. N. Kudin, 
 V. N. Staroverov, T. A. Keith, R. Kobayashi, J. Normand, 
 K. Raghavachari, A. P. Rendell, J. C. Burant, S. S. Iyengar, 
 J. Tomasi, M. Cossi, J. M. Millam, M. Klene, C. Adamo, R. Cammi, 
 J. W. Ochterski, R. L. Martin, K. Morokuma, O. Farkas, 
 J. B. Foresman, and D. J. Fox, Gaussian, Inc., Wallingford CT, 2016.
 
 ******************************************
 Gaussian 16:  ES64L-G16RevB.01 20-Dec-2017
                10-Mar-2024 
 ******************************************
 ---------------------------------------------------------
 #n b3lyp/6-311G(d,p) empiricaldispersion=gd3 Charge Polar
 ---------------------------------------------------------
 1/18=10,28=-2,38=1,125=101,172=1/1;
 2/12=2,17=6,18=5,40=1/2;
 3/5=4,6=6,7=101,11=2,25=1,30=1,74=-5,124=31/1,2,3;
 4//1;
 5/5=2,38=5,98=1/2;
 8/6=4,10=90,11=11/1;
 10/6=1,13=10/2;
 6/7=2,8=2,9=2,10=2,28=1/1;
 99/5=1,9=1/99;
 ----------
 Water Scan
 ----------
 Symbolic Z-matrix:
 Charge =  0 Multiplicity = 1
 O                     19.39747   11.25024   17.19332 
 H                     19.44268   10.88859   17.84881 
 H                     20.22747   11.07024   16.64332 
 
 Background charge distribution read from input stream:
                          Input orientation:                          
 ---------------------------------------------------------------------
 Center     Atomic      Atomic             Coordinates (Angstroms)
 Number     Number       Type             X           Y           Z
 ---------------------------------------------------------------------
      1          8           0       19.397470   11.250240   17.193320
      2          1           0       19.442680   10.888590   17.848810
      3          1           0       20.227470   11.070240   16.643320
 ---------------------------------------------------------------------
                    Distance matrix (angstroms):
                    1          2          3
     1  O    0.000000
     2  H    0.750001   0.000000
     3  H    1.011830   1.449861   0.000000
 Stoichiometry    H2O
 Framework group  CS[SG(H2O)]
 Deg. of freedom     3
 Full point group                 CS      NOp   2
 Largest Abelian subgroup         CS      NOp   2
 Largest concise Abelian subgroup C1      NOp   1
                         Standard orientation:                         
 ---------------------------------------------------------------------
 Center     Atomic      Atomic             Coordinates (Angstroms)
 Number     Number       Type             X           Y           Z
 ---------------------------------------------------------------------
      1          8           0        0.000000    0.103465    0.000000
      2          1           0        0.689804   -0.190937   -0.000000
      3          1           0       -0.689804   -0.636785   -0.000000
 ---------------------------------------------------------------------
 Rotational constants (GHZ):        1245.8446115         446.1753437         328.5216265
 Standard basis: 6-311G(d,p) (5D, 7F)
 There are    24 symmetry adapted cartesian basis functions of A'  symmetry.
 There are     7 symmetry adapted cartesian basis functions of A"  symmetry.
 There are    23 symmetry adapted basis functions of A'  symmetry.
 There are     7 symmetry adapted basis functions of A"  symmetry.
    30 basis functions,    48 primitive gaussians,    31 cartesian basis functions
     5 alpha electrons        5 beta electrons
       nuclear repulsion energy        10.1934543156 Hartrees.
 NAtoms=    3 NActive=    3 NUniq=    3 SFac= 1.00D+00 NAtFMM=   60 NAOKFM=F Big=F
 Integral buffers will be    131072 words long.
 Raffenetti 2 integral format.
 Two-electron integral symmetry is turned on.
 Nuclear repulsion after empirical dispersion term =       10.1934486282 Hartrees.
 One-electron integrals computed using PRISM.
 NBasis=    30 RedAO= T EigKep=  1.03D-02  NBF=    23     7
 NBsUse=    30 1.00D-06 EigRej= -1.00D+00 NBFU=    23     7
 ExpMin= 1.03D-01 ExpMax= 8.59D+03 ExpMxC= 1.30D+03 IAcc=3 IRadAn=         5 AccDes= 0.00D+00
 Harris functional with IExCor=  402 and IRadAn=       5 diagonalized for initial guess.
 HarFok:  IExCor=  402 AccDes= 0.00D+00 IRadAn=         5 IDoV= 1 UseB2=F ITyADJ=14
 ICtDFT=  3500011 ScaDFX=  1.000000  1.000000  1.000000  1.000000
 FoFCou: FMM=F IPFlag=           0 FMFlag=      100000 FMFlg1=           0
         NFxFlg=           0 DoJE=T BraDBF=F KetDBF=T FulRan=T
         wScrn=  0.000000 ICntrl=       500 IOpCl=  0 I1Cent=   200000004 NGrid=           0
         NMat0=    1 NMatS0=      1 NMatT0=    0 NMatD0=    1 NMtDS0=    0 NMtDT0=    0
 Petite list used in FoFCou.
 Initial guess orbital symmetries:
       Occupied  (A') (A') (A') (A') (A")
       Virtual   (A') (A') (A') (A') (A') (A") (A') (A') (A") (A')
                 (A") (A') (A') (A') (A') (A') (A") (A") (A') (A')
                 (A') (A") (A') (A') (A')
 The electronic state of the initial guess is 1-A'.
 Keep R1 ints in memory in symmetry-blocked form, NReq=973774.
 Requested convergence on RMS density matrix=1.00D-08 within 128 cycles.
 Requested convergence on MAX density matrix=1.00D-06.
 Requested convergence on             energy=1.00D-06.
 No special actions if energy rises.
 Integral accuracy reduced to 1.0D-05 until final iterations.
 Initial convergence to 1.0D-05 achieved.  Increase integral accuracy.
 SCF Done:  E(RB3LYP) =  -76.3714487190     A.U. after   10 cycles
            NFock= 10  Conv=0.69D-09     -V/T= 1.9945
 DoSCS=F DFT=T ScalE2(SS,OS)=  1.000000  1.000000
 Range of M.O.s used for correlation:     1    30
 NBasis=    30 NAE=     5 NBE=     5 NFC=     0 NFV=     0
 NROrb=     30 NOA=     5 NOB=     5 NVA=    25 NVB=    25
          Differentiating once with respect to electric field.
                with respect to dipole field.
          Electric field/nuclear overlap derivatives assumed to be zero.
 Keep R1 ints in memory in symmetry-blocked form, NReq=972004.
          There are     3 degrees of freedom in the 1st order CPHF.  IDoFFX=0 NUNeed=     3.
      3 vectors produced by pass  0 Test12= 4.17D-15 3.33D-08 XBig12= 2.41D+00 1.00D+00.
 AX will form     3 AO Fock derivatives at one time.
      3 vectors produced by pass  1 Test12= 4.17D-15 3.33D-08 XBig12= 1.49D-01 1.57D-01.
      3 vectors produced by pass  2 Test12= 4.17D-15 3.33D-08 XBig12= 1.02D-02 5.34D-02.
      3 vectors produced by pass  3 Test12= 4.17D-15 3.33D-08 XBig12= 1.72D-04 4.77D-03.
      3 vectors produced by pass  4 Test12= 4.17D-15 3.33D-08 XBig12= 1.12D-06 4.48D-04.
      3 vectors produced by pass  5 Test12= 4.17D-15 3.33D-08 XBig12= 3.00D-09 2.36D-05.
      3 vectors produced by pass  6 Test12= 4.17D-15 3.33D-08 XBig12= 9.05D-12 1.03D-06.
      1 vectors produced by pass  7 Test12= 4.17D-15 3.33D-08 XBig12= 1.19D-14 3.80D-08.
 InvSVY:  IOpt=1 It=  1 EMax= 2.22D-16
 Solved reduced A of dimension    22 with     3 vectors.
 Isotropic polarizability for W=    0.000000        5.25 Bohr**3.
 End of Minotr F.D. properties file   721 does not exist.
 End of Minotr F.D. properties file   722 does not exist.
 End of Minotr F.D. properties file   788 does not exist.

 **********************************************************************

            Population analysis using the SCF Density.

 **********************************************************************

 Orbital symmetries:
       Occupied  (A') (A') (A') (A') (A")
       Virtual   (A') (A') (A') (A') (A') (A") (A') (A') (A") (A')
                 (A") (A') (A') (A') (A') (A') (A") (A") (A') (A')
                 (A') (A") (A') (A') (A')
 The electronic state is 1-A'.
 Alpha  occ. eigenvalues --  -19.08346  -1.05283  -0.56343  -0.37156  -0.30586
 Alpha virt. eigenvalues --    0.03400   0.11904   0.36829   0.51951   0.75251
 Alpha virt. eigenvalues --    0.75868   0.87292   1.07040   1.27468   1.31450
 Alpha virt. eigenvalues --    1.52615   1.67863   1.95132   2.02515   2.38558
 Alpha virt. eigenvalues --    2.66382   3.06186   3.37452   3.40495   3.68807
 Alpha virt. eigenvalues --    4.06702   4.79862   5.20050   6.08590  50.07551
          Condensed to atoms (all electrons):
               1          2          3
     1  O    7.807632   0.370639   0.316849
     2  H    0.370639   0.415102  -0.038268
     3  H    0.316849  -0.038268   0.478825
 Mulliken charges:
               1
     1  O   -0.495120
     2  H    0.252527
     3  H    0.242594
 Sum of Mulliken charges =  -0.00000
 Mulliken charges with hydrogens summed into heavy atoms:
               1
     1  O   -0.000000
 Electronic spatial extent (au):  <R**2>=             18.1516
 Charge=             -0.0000 electrons
 Dipole moment (field-independent basis, Debye):
    X=              0.2130    Y=             -1.9499    Z=             -0.0000  Tot=              1.9615
 Quadrupole moment (field-independent basis, Debye-Ang):
   XX=             -4.3867   YY=             -5.9148   ZZ=             -7.0079
   XY=              0.6635   XZ=             -0.0000   YZ=             -0.0000
 Traceless Quadrupole moment (field-independent basis, Debye-Ang):
   XX=              1.3831   YY=             -0.1450   ZZ=             -1.2381
   XY=              0.6635   XZ=             -0.0000   YZ=             -0.0000
 Octapole moment (field-independent basis, Debye-Ang**2):
  XXX=              0.4768  YYY=             -1.3276  ZZZ=             -0.0000  XYY=             -0.2890
  XXY=             -0.9830  XXZ=             -0.0000  XZZ=              0.1831  YZZ=             -0.3125
  YYZ=             -0.0000  XYZ=             -0.0000
 Hexadecapole moment (field-independent basis, Debye-Ang**3):
 XXXX=             -5.3386 YYYY=             -6.0191 ZZZZ=             -5.0970 XXXY=             -0.1316
 XXXZ=             -0.0000 YYYX=             -0.0665 YYYZ=             -0.0000 ZZZX=             -0.0000
 ZZZY=             -0.0000 XXYY=             -1.6163 XXZZ=             -1.9364 YYZZ=             -1.9300
 XXYZ=             -0.0000 YYXZ=             -0.0000 ZZXY=             -0.1677
 N-N= 1.019344862822D+01 E-N=-2.016756115699D+02  KE= 7.679644655926D+01
 Symmetry A'   KE= 7.212650799659D+01
 Symmetry A"   KE= 4.669938562668D+00
  Exact polarizability:   6.084   1.457   5.598   0.000   0.000   4.068
 Approx polarizability:   7.528   2.074   6.646   0.000   0.000   4.322

 ----------------------------------------------------------------------

 Electric dipole moment (input orientation):
 (Debye = 10**-18 statcoulomb cm , SI units = C m)
                  (au)            (Debye)         (10**-30 SI)
   Tot        0.771711D+00      0.196149D+01      0.654284D+01
   x          0.624164D+00      0.158647D+01      0.529188D+01
   y         -0.426823D+00     -0.108487D+01     -0.361875D+01
   z          0.154209D+00      0.391960D+00      0.130744D+01

 Dipole polarizability, Alpha (input orientation).
 (esu units = cm**3 , SI units = C**2 m**2 J**-1)
 Alpha(0;0):
               (au)            (10**-24 esu)      (10**-40 SI)
   iso        0.524980D+01      0.777940D+00      0.865575D+00
   aniso      0.311253D+01      0.461229D+00      0.513186D+00
   xx         0.606689D+01      0.899020D+00      0.100029D+01
   yx        -0.352938D+00     -0.523000D-01     -0.581916D-01
   yy         0.421069D+01      0.623961D+00      0.694250D+00
   zx        -0.148170D+01     -0.219565D+00     -0.244299D+00
   zy         0.104643D+00      0.155064D-01      0.172532D-01
   zz         0.547181D+01      0.810838D+00      0.902179D+00

 First dipole hyperpolarizability, Beta (input orientation).
 ||, _|_  parallel and perpendicular components, (z) with respect to z axis,
 vector components x,y,z.  Values do not include the 1/n! factor of 1/2.
 (esu units = statvolt**-1 cm**4 , SI units = C**3 m**3 J**-2)
 Beta(0;0,0):
               (au)            (10**-30 esu)      (10**-50 SI)
   || (z)    -0.230509D+00     -0.199141D-02     -0.739094D-03
   _|_(z)    -0.768362D-01     -0.663805D-03     -0.246365D-03
   x          0.820664D+02      0.708990D+00      0.263135D+00
   y         -0.451203D+02     -0.389804D+00     -0.144672D+00
   z         -0.115254D+01     -0.995707D-02     -0.369547D-02
   ||         0.187319D+02      0.161829D+00      0.600611D-01
   xxx        0.176131D+02      0.152163D+00      0.564740D-01
   xxy       -0.376897D+01     -0.325610D-01     -0.120847D-01
   yxy        0.156019D+01      0.134788D-01      0.500253D-02
   yyy       -0.750027D+01     -0.647965D-01     -0.240486D-01
   xxz       -0.687586D+01     -0.594020D-01     -0.220465D-01
   yxz        0.243410D+01      0.210287D-01      0.780461D-02
   yyz        0.211219D+01      0.182476D-01      0.677243D-02
   zxz        0.818218D+01      0.706877D-01      0.262350D-01
   zyz       -0.377084D+01     -0.325771D-01     -0.120907D-01
   zzz        0.437949D+01      0.378354D-01      0.140422D-01

 ----------------------------------------------------------------------

 Dipole orientation:
     8         -1.68165444         47.47627813         24.38146910
     1         -2.89946704         47.68405923         25.07608403
     1         -0.25452782         47.23278422         25.63049932

 Electric dipole moment (dipole orientation):
 (Debye = 10**-18 statcoulomb cm , SI units = C m)
                  (au)            (Debye)         (10**-30 SI)
   Tot        0.771711D+00      0.196149D+01      0.654284D+01
   x          0.000000D+00      0.000000D+00      0.000000D+00
   y          0.000000D+00      0.000000D+00      0.000000D+00
   z          0.771711D+00      0.196149D+01      0.654284D+01

 Dipole polarizability, Alpha (dipole orientation).
 (esu units = cm**3 , SI units = C**2 m**2 J**-1)
 Alpha(0;0):
               (au)            (10**-24 esu)      (10**-40 SI)
   iso        0.524980D+01      0.777940D+00      0.865575D+00
   aniso      0.311253D+01      0.461229D+00      0.513186D+00
   xx         0.632682D+01      0.937537D+00      0.104315D+01
   yx        -0.385426D+00     -0.571143D-01     -0.635482D-01
   yy         0.413358D+01      0.612533D+00      0.681535D+00
   zx         0.135052D+01      0.200126D+00      0.222670D+00
   zy        -0.230423D+00     -0.341452D-01     -0.379916D-01
   zz         0.528900D+01      0.783748D+00      0.872038D+00

 First dipole hyperpolarizability, Beta (dipole orientation).
 ||, _|_  parallel and perpendicular components, (z) with respect to z axis,
 vector components x,y,z.  Values do not include the 1/n! factor of 1/2.
 (esu units = statvolt**-1 cm**4 , SI units = C**3 m**3 J**-2)
 Beta(0;0,0):
               (au)            (10**-30 esu)      (10**-50 SI)
   || (z)     0.182202D+02      0.157408D+00      0.584204D-01
   _|_(z)     0.607338D+01      0.524693D-01      0.194735D-01
   x          0.214322D+02      0.185158D+00      0.687195D-01
   y         -0.365673D+01     -0.315913D-01     -0.117248D-01
   z          0.911008D+02      0.787040D+00      0.292102D+00
   ||         0.187319D+02      0.161829D+00      0.600611D-01
   xxx        0.365382D+01      0.315662D-01      0.117155D-01
   xxy       -0.144215D+01     -0.124591D-01     -0.462406D-02
   yxy       -0.208344D+01     -0.179993D-01     -0.668026D-02
   yyy        0.117422D+01      0.101443D-01      0.376496D-02
   xxz        0.128590D+02      0.111092D+00      0.412306D-01
   yxz       -0.152027D+01     -0.131339D-01     -0.487452D-02
   yyz        0.420806D+01      0.363543D-01      0.134926D-01
   zxz        0.557370D+01      0.481524D-01      0.178713D-01
   zyz       -0.950974D+00     -0.821568D-02     -0.304917D-02
   zzz        0.132999D+02      0.114900D+00      0.426442D-01

 ----------------------------------------------------------------------

 Test job not archived.
 1\1\GINC-GEO\SP\RB3LYP\6-311G(d,p)\H2O1\PISKULIC\10-Mar-2024\0\\#n b3l
 yp/6-311G(d,p) empiricaldispersion=gd3 Charge Polar\\Water Scan\\0,1\O
 ,0,19.39747,11.25024,17.19332\H,0,19.44268,10.88859,17.84881\H,0,20.22
 747,11.07024,16.64332\\Version=ES64L-G16RevB.01\State=1-A'\HF=-76.3714
 487\RMSD=6.851e-10\Dipole=0.6241639,-0.4268225,0.1542091\Polar=6.06688
 79,-0.352938,4.2106944,-1.4816968,0.1046425,5.471809\HyperPolar=17.613
 097,-3.7689724,1.5601899,-7.5002714,-6.8758563,2.4341004,2.1121867,8.1
 821845,-3.7708412,4.3794887\Quadrupole=0.0777558,-0.6767577,0.5990019,
 -0.1374096,-0.8155328,-0.3257004\PG=CS [SG(H2O1)]\\@


 There was a great rattling of the words for the fewness of ideas.
                   -- Charles Baxter in Gryphon
 Job cpu time:       0 days  0 hours  0 minutes  1.6 seconds.
 Elapsed time:       0 days  0 hours  0 minutes  1.6 seconds.
 File lengths (MBytes):  RWF=     17 Int=      0 D2E=      0 Chk=      2 Scr=      2
 Normal termination of Gaussian 16 at Sun Mar 10 21:53:19 2024.
 Initial command:
 /usr/local/apps/gaussian-16.B.01/avx2/g16/l1.exe "/projectnb/cui-buchem/piskulic/Projects/empmap/trr_map/test_dir/Gau-2387804.inp" -scrdir="/projectnb/cui-buchem/piskulic/Projects/empmap/trr_map/test_dir/"
 Entering Link 1 = /usr/local/apps/gaussian-16.B.01/avx2/g16/l1.exe PID=   2387824.
  
 Copyright (c) 1988-2017, Gaussian, Inc.  All Rights Reserved.
  
 This is part of the Gaussian(R) 16 program.  It is based on
 the Gaussian(R) 09 system (copyright 2009, Gaussian, Inc.),
 the Gaussian(R) 03 system (copyright 2003, Gaussian, Inc.),
 the Gaussian(R) 98 system (copyright 1998, Gaussian, Inc.),
 the Gaussian(R) 94 system (copyright 1995, Gaussian, Inc.),
 the Gaussian 92(TM) system (copyright 1992, Gaussian, Inc.),
 the Gaussian 90(TM) system (copyright 1990, Gaussian, Inc.),
 the Gaussian 88(TM) system (copyright 1988, Gaussian, Inc.),
 the Gaussian 86(TM) system (copyright 1986, Carnegie Mellon
 University), and the Gaussian 82(TM) system (copyright 1983,
 Carnegie Mellon University). Gaussian is a federally registered
 trademark of Gaussian, Inc.
  
 This software contains proprietary and confidential information,
 including trade secrets, belonging to Gaussian, Inc.
  
 This software is provided under written license and may be
 used, copied, transmitted, or stored only in accord with that
 written license.
  
 The following legend is applicable only to US Government
 contracts under FAR:
  
                    RESTRICTED RIGHTS LEGEND
  
 Use, reproduction and disclosure by the US Government is
 subject to restrictions as set forth in subparagraphs (a)
 and (c) of the Commercial Computer Software - Restricted
 Rights clause in FAR 52.227-19.
  
 Gaussian, Inc.
 340 Quinnipiac St., Bldg. 40, Wallingford CT 06492
  
  
 ---------------------------------------------------------------
 Warning -- This program may not be used in any manner that
 competes with the business of Gaussian, Inc. or will provide
 assistance to any competitor of Gaussian, Inc.  The licensee
 of this program is prohibited from giving any competitor of
 Gaussian, Inc. access to this program.  By using this program,
 the user acknowledges that Gaussian, Inc. is engaged in the
 business of creating and licensing software in the field of
 computational chemistry and represents and warrants to the
 licensee that it is not a competitor of Gaussian, Inc. and that
 it will not use this program in any manner prohibited above.
 ---------------------------------------------------------------
  

 Cite this work as:
 Gaussian 16, Revision B.01,
 M. J. Frisch, G. W. Trucks, H. B. Schlegel, G. E. Scuseria, 
 M. A. Robb, J. R. Cheeseman, G. Scalmani, V. Barone, 
 G. A. Petersson, H. Nakatsuji, X. Li, M. Caricato, A. V. Marenich, 
 J. Bloino, B. G. Janesko, R. Gomperts, B. Mennucci, H. P. Hratchian, 
 J. V. Ortiz, A. F. Izmaylov, J. L. Sonnenberg, D. Williams-Young, 
 F. Ding, F. Lipparini, F. Egidi, J. Goings, B. Peng, A. Petrone, 
 T. Henderson, D. Ranasinghe, V. G. Zakrzewski, J. Gao, N. Rega, 
 G. Zheng, W. Liang, M. Hada, M. Ehara, K. Toyota, R. Fukuda, 
 J. Hasegawa, M. Ishida, T. Nakajima, Y. Honda, O. Kitao, H. Nakai, 
 T. Vreven, K. Throssell, J. A. Montgomery, Jr., J. E. Peralta, 
 F. Ogliaro, M. J. Bearpark, J. J. Heyd, E. N. Brothers, K. N. Kudin, 
 V. N. Staroverov, T. A. Keith, R. Kobayashi, J. Normand, 
 K. Raghavachari, A. P. Rendell, J. C. Burant, S. S. Iyengar, 
 J. Tomasi, M. Cossi, J. M. Millam, M. Klene, C. Adamo, R. Cammi, 
 J. W. Ochterski, R. L. Martin, K. Morokuma, O. Farkas, 
 J. B. Foresman, and D. J. Fox, Gaussian, Inc., Wallingford CT, 2016.
 
 ******************************************
 Gaussian 16:  ES64L-G16RevB.01 20-Dec-2017
                10-Mar-2024 
 ******************************************
 ---------------------------------------------------------
 #n b3lyp/6-311G(d,p) empiricaldispersion=gd3 Charge Polar
 ---------------------------------------------------------
 1/18=10,28=-2,38=1,125=101,172=1/1;
 2/12=2,17=6,18=5,40=1/2;
 3/5=4,6=6,7=101,11=2,25=1,30=1,74=-5,124=31/1,2,3;
 4//1;
 5/5=2,38=5,98=1/2;
 8/6=4,10=90,11=11/1;
 10/6=1,13=10/2;
 6/7=2,8=2,9=2,10=2,28=1/1;
 99/5=1,9=1/99;
 ----------
 Water Scan
 ----------
 Symbolic Z-matrix:
 Charge =  0 Multiplicity = 1
 O                     19.39713   11.25293   17.18843 
 H                     19.44837   10.84306   17.93132 
 H                     20.22713   11.07293   16.63843 
 
 Background charge distribution read from input stream:
                          Input orientation:                          
 ---------------------------------------------------------------------
 Center     Atomic      Atomic             Coordinates (Angstroms)
 Number     Number       Type             X           Y           Z
 ---------------------------------------------------------------------
      1          8           0       19.397130   11.252930   17.188430
      2          1           0       19.448370   10.843060   17.931320
      3          1           0       20.227130   11.072930   16.638430
 ---------------------------------------------------------------------
                    Distance matrix (angstroms):
                    1          2          3
     1  O    0.000000
     2  H    0.850003   0.000000
     3  H    1.011830   1.526719   0.000000
 Stoichiometry    H2O
 Framework group  CS[SG(H2O)]
 Deg. of freedom     3
 Full point group                 CS      NOp   2
 Largest Abelian subgroup         CS      NOp   2
 Largest concise Abelian subgroup C1      NOp   1
                         Standard orientation:                         
 ---------------------------------------------------------------------
 Center     Atomic      Atomic             Coordinates (Angstroms)
 Number     Number       Type             X           Y           Z
 ---------------------------------------------------------------------
      1          8           0        0.000000    0.107784   -0.000000
      2          1           0        0.750455   -0.291367    0.000000
      3          1           0       -0.750455   -0.570904    0.000000
 ---------------------------------------------------------------------
 Rotational constants (GHZ):        1031.4008346         419.5896787         298.2549788
 Standard basis: 6-311G(d,p) (5D, 7F)
 There are    24 symmetry adapted cartesian basis functions of A'  symmetry.
 There are     7 symmetry adapted cartesian basis functions of A"  symmetry.
 There are    23 symmetry adapted basis functions of A'  symmetry.
 There are     7 symmetry adapted basis functions of A"  symmetry.
    30 basis functions,    48 primitive gaussians,    31 cartesian basis functions
     5 alpha electrons        5 beta electrons
       nuclear repulsion energy         9.5110083221 Hartrees.
 NAtoms=    3 NActive=    3 NUniq=    3 SFac= 1.00D+00 NAtFMM=   60 NAOKFM=F Big=F
 Integral buffers will be    131072 words long.
 Raffenetti 2 integral format.
 Two-electron integral symmetry is turned on.
 Nuclear repulsion after empirical dispersion term =        9.5109999898 Hartrees.
 One-electron integrals computed using PRISM.
 NBasis=    30 RedAO= T EigKep=  1.51D-02  NBF=    23     7
 NBsUse=    30 1.00D-06 EigRej= -1.00D+00 NBFU=    23     7
 ExpMin= 1.03D-01 ExpMax= 8.59D+03 ExpMxC= 1.30D+03 IAcc=3 IRadAn=         5 AccDes= 0.00D+00
 Harris functional with IExCor=  402 and IRadAn=       5 diagonalized for initial guess.
 HarFok:  IExCor=  402 AccDes= 0.00D+00 IRadAn=         5 IDoV= 1 UseB2=F ITyADJ=14
 ICtDFT=  3500011 ScaDFX=  1.000000  1.000000  1.000000  1.000000
 FoFCou: FMM=F IPFlag=           0 FMFlag=      100000 FMFlg1=           0
         NFxFlg=           0 DoJE=T BraDBF=F KetDBF=T FulRan=T
         wScrn=  0.000000 ICntrl=       500 IOpCl=  0 I1Cent=   200000004 NGrid=           0
         NMat0=    1 NMatS0=      1 NMatT0=    0 NMatD0=    1 NMtDS0=    0 NMtDT0=    0
 Petite list used in FoFCou.
 Initial guess orbital symmetries:
       Occupied  (A') (A') (A') (A') (A")
       Virtual   (A') (A') (A') (A') (A') (A") (A') (A') (A") (A')
                 (A") (A') (A') (A') (A') (A') (A") (A") (A') (A')
                 (A') (A") (A') (A') (A')
 The electronic state of the initial guess is 1-A'.
 Keep R1 ints in memory in symmetry-blocked form, NReq=973774.
 Requested convergence on RMS density matrix=1.00D-08 within 128 cycles.
 Requested convergence on MAX density matrix=1.00D-06.
 Requested convergence on             energy=1.00D-06.
 No special actions if energy rises.
 Integral accuracy reduced to 1.0D-05 until final iterations.
 Initial convergence to 1.0D-05 achieved.  Increase integral accuracy.
 SCF Done:  E(RB3LYP) =  -76.4289572656     A.U. after    9 cycles
            NFock=  9  Conv=0.10D-07     -V/T= 1.9994
 DoSCS=F DFT=T ScalE2(SS,OS)=  1.000000  1.000000
 Range of M.O.s used for correlation:     1    30
 NBasis=    30 NAE=     5 NBE=     5 NFC=     0 NFV=     0
 NROrb=     30 NOA=     5 NOB=     5 NVA=    25 NVB=    25
          Differentiating once with respect to electric field.
                with respect to dipole field.
          Electric field/nuclear overlap derivatives assumed to be zero.
 Keep R1 ints in memory in symmetry-blocked form, NReq=972004.
          There are     3 degrees of freedom in the 1st order CPHF.  IDoFFX=0 NUNeed=     3.
      3 vectors produced by pass  0 Test12= 4.17D-15 3.33D-08 XBig12= 3.07D+00 1.13D+00.
 AX will form     3 AO Fock derivatives at one time.
      3 vectors produced by pass  1 Test12= 4.17D-15 3.33D-08 XBig12= 2.58D-01 2.31D-01.
      3 vectors produced by pass  2 Test12= 4.17D-15 3.33D-08 XBig12= 1.16D-02 5.03D-02.
      3 vectors produced by pass  3 Test12= 4.17D-15 3.33D-08 XBig12= 9.43D-05 3.39D-03.
      3 vectors produced by pass  4 Test12= 4.17D-15 3.33D-08 XBig12= 5.56D-07 3.16D-04.
      3 vectors produced by pass  5 Test12= 4.17D-15 3.33D-08 XBig12= 1.41D-09 1.55D-05.
      3 vectors produced by pass  6 Test12= 4.17D-15 3.33D-08 XBig12= 4.10D-12 7.21D-07.
      1 vectors produced by pass  7 Test12= 4.17D-15 3.33D-08 XBig12= 4.89D-15 2.93D-08.
 InvSVY:  IOpt=1 It=  1 EMax= 2.22D-16
 Solved reduced A of dimension    22 with     3 vectors.
 Isotropic polarizability for W=    0.000000        5.61 Bohr**3.
 End of Minotr F.D. properties file   721 does not exist.
 End of Minotr F.D. properties file   722 does not exist.
 End of Minotr F.D. properties file   788 does not exist.

 **********************************************************************

            Population analysis using the SCF Density.

 **********************************************************************

 Orbital symmetries:
       Occupied  (A') (A') (A') (A') (A")
       Virtual   (A') (A') (A') (A') (A') (A") (A') (A') (A") (A')
                 (A") (A') (A') (A') (A') (A') (A") (A") (A') (A')
                 (A') (A") (A') (A') (A')
 The electronic state is 1-A'.
 Alpha  occ. eigenvalues --  -19.09328  -1.01748  -0.54360  -0.36703  -0.30058
 Alpha virt. eigenvalues --    0.03090   0.11072   0.36976   0.46390   0.75667
 Alpha virt. eigenvalues --    0.76317   0.86558   1.06333   1.26005   1.32173
 Alpha virt. eigenvalues --    1.50175   1.64051   1.93847   2.05770   2.35815
 Alpha virt. eigenvalues --    2.48170   3.06480   3.26195   3.34448   3.64560
 Alpha virt. eigenvalues --    3.88440   4.77710   5.16339   5.81116  49.92151
          Condensed to atoms (all electrons):
               1          2          3
     1  O    7.839857   0.343257   0.311813
     2  H    0.343257   0.444468  -0.036881
     3  H    0.311813  -0.036881   0.479297
 Mulliken charges:
               1
     1  O   -0.494926
     2  H    0.249156
     3  H    0.245771
 Sum of Mulliken charges =  -0.00000
 Mulliken charges with hydrogens summed into heavy atoms:
               1
     1  O   -0.000000
 Electronic spatial extent (au):  <R**2>=             18.7768
 Charge=             -0.0000 electrons
 Dipole moment (field-independent basis, Debye):
    X=              0.1348    Y=             -1.9713    Z=              0.0000  Tot=              1.9759
 Quadrupole moment (field-independent basis, Debye-Ang):
   XX=             -4.1921   YY=             -6.1027   ZZ=             -7.1308
   XY=              0.4397   XZ=             -0.0000   YZ=              0.0000
 Traceless Quadrupole moment (field-independent basis, Debye-Ang):
   XX=              1.6164   YY=             -0.2942   ZZ=             -1.3223
   XY=              0.4397   XZ=             -0.0000   YZ=              0.0000
 Octapole moment (field-independent basis, Debye-Ang**2):
  XXX=              0.3108  YYY=             -1.1883  ZZZ=              0.0000  XYY=             -0.2156
  XXY=             -1.1344  XXZ=              0.0000  XZZ=              0.1188  YZZ=             -0.3033
  YYZ=              0.0000  XYZ=             -0.0000
 Hexadecapole moment (field-independent basis, Debye-Ang**3):
 XXXX=             -5.7375 YYYY=             -6.2040 ZZZZ=             -5.2347 XXXY=             -0.0793
 XXXZ=             -0.0000 YYYX=             -0.0724 YYYZ=              0.0000 ZZZX=             -0.0000
 ZZZY=              0.0000 XXYY=             -1.7180 XXZZ=             -2.1005 YYZZ=             -1.9629
 XXYZ=              0.0000 YYXZ=             -0.0000 ZZXY=             -0.1241
 N-N= 9.510999989800D+00 E-N=-2.002496708831D+02  KE= 7.647322888648D+01
 Symmetry A'   KE= 7.181200007883D+01
 Symmetry A"   KE= 4.661228807652D+00
  Exact polarizability:   7.175   1.076   5.634   0.000  -0.000   4.028
 Approx polarizability:   8.895   1.555   6.720   0.000  -0.000   4.272

 ----------------------------------------------------------------------

 Electric dipole moment (input orientation):
 (Debye = 10**-18 statcoulomb cm , SI units = C m)
                  (au)            (Debye)         (10**-30 SI)
   Tot        0.777365D+00      0.197586D+01      0.659077D+01
   x          0.614651D+00      0.156229D+01      0.521123D+01
   y         -0.437966D+00     -0.111320D+01     -0.371323D+01
   z          0.186243D+00      0.473383D+00      0.157903D+01

 Dipole polarizability, Alpha (input orientation).
 (esu units = cm**3 , SI units = C**2 m**2 J**-1)
 Alpha(0;0):
               (au)            (10**-24 esu)      (10**-40 SI)
   iso        0.561214D+01      0.831633D+00      0.925317D+00
   aniso      0.330186D+01      0.489285D+00      0.544403D+00
   xx         0.616952D+01      0.914228D+00      0.101722D+01
   yx        -0.416146D+00     -0.616664D-01     -0.686131D-01
   yy         0.441313D+01      0.653958D+00      0.727626D+00
   zx        -0.151365D+01     -0.224299D+00     -0.249567D+00
   zy        -0.299632D+00     -0.444009D-01     -0.494026D-01
   zz         0.625378D+01      0.926715D+00      0.103111D+01

 First dipole hyperpolarizability, Beta (input orientation).
 ||, _|_  parallel and perpendicular components, (z) with respect to z axis,
 vector components x,y,z.  Values do not include the 1/n! factor of 1/2.
 (esu units = statvolt**-1 cm**4 , SI units = C**3 m**3 J**-2)
 Beta(0;0,0):
               (au)            (10**-30 esu)      (10**-50 SI)
   || (z)     0.222224D+01      0.191985D-01      0.712532D-02
   _|_(z)     0.740748D+00      0.639949D-02      0.237511D-02
   x          0.902711D+02      0.779872D+00      0.289442D+00
   y         -0.559853D+02     -0.483669D+00     -0.179509D+00
   z          0.111112D+02      0.959923D-01      0.356266D-01
   ||         0.213604D+02      0.184537D+00      0.684892D-01
   xxx        0.190386D+02      0.164479D+00      0.610447D-01
   xxy       -0.364777D+01     -0.315139D-01     -0.116961D-01
   yxy        0.199671D+01      0.172501D-01      0.640219D-02
   yyy       -0.824443D+01     -0.712255D-01     -0.264346D-01
   xxz       -0.766759D+01     -0.662420D-01     -0.245851D-01
   yxz        0.236372D+01      0.204207D-01      0.757895D-02
   yyz        0.316629D+01      0.273543D-01      0.101523D-01
   zxz        0.905503D+01      0.782284D-01      0.290337D-01
   zyz       -0.676955D+01     -0.584837D-01     -0.217056D-01
   zzz        0.820505D+01      0.708852D-01      0.263083D-01

 ----------------------------------------------------------------------

 Dipole orientation:
     8          0.12761626         47.29249544         24.78413294
     1         -1.21274862         47.54201704         25.63340991
     1          1.60458794         47.01754319         25.96693136

 Electric dipole moment (dipole orientation):
 (Debye = 10**-18 statcoulomb cm , SI units = C m)
                  (au)            (Debye)         (10**-30 SI)
   Tot        0.777365D+00      0.197586D+01      0.659077D+01
   x          0.000000D+00      0.000000D+00      0.000000D+00
   y          0.000000D+00      0.000000D+00      0.000000D+00
   z          0.777365D+00      0.197586D+01      0.659077D+01

 Dipole polarizability, Alpha (dipole orientation).
 (esu units = cm**3 , SI units = C**2 m**2 J**-1)
 Alpha(0;0):
               (au)            (10**-24 esu)      (10**-40 SI)
   iso        0.561214D+01      0.831633D+00      0.925317D+00
   aniso      0.330186D+01      0.489285D+00      0.544403D+00
   xx         0.720380D+01      0.106749D+01      0.118775D+01
   yx        -0.591294D+00     -0.876207D-01     -0.974912D-01
   yy         0.413760D+01      0.613129D+00      0.682198D+00
   zx         0.944899D+00      0.140020D+00      0.155793D+00
   zy        -0.175902D+00     -0.260660D-01     -0.290023D-01
   zz         0.549502D+01      0.814278D+00      0.906006D+00

 First dipole hyperpolarizability, Beta (dipole orientation).
 ||, _|_  parallel and perpendicular components, (z) with respect to z axis,
 vector components x,y,z.  Values do not include the 1/n! factor of 1/2.
 (esu units = statvolt**-1 cm**4 , SI units = C**3 m**3 J**-2)
 Beta(0;0,0):
               (au)            (10**-30 esu)      (10**-50 SI)
   || (z)     0.211160D+02      0.182426D+00      0.677056D-01
   _|_(z)     0.703867D+01      0.608086D-01      0.225685D-01
   x          0.158379D+02      0.136827D+00      0.507821D-01
   y         -0.294838D+01     -0.254717D-01     -0.945356D-02
   z          0.105580D+03      0.912129D+00      0.338528D+00
   ||         0.213604D+02      0.184537D+00      0.684892D-01
   xxx        0.265269D+01      0.229172D-01      0.850548D-02
   xxy       -0.107463D+01     -0.928395D-02     -0.344564D-02
   yxy       -0.130585D+01     -0.112815D-01     -0.418703D-02
   yyy        0.823901D+00      0.711787D-02      0.264173D-02
   xxz        0.164852D+02      0.142419D+00      0.528576D-01
   yxz       -0.227292D+01     -0.196362D-01     -0.728779D-02
   yyz        0.469883D+01      0.405942D-01      0.150661D-01
   zxz        0.393247D+01      0.339735D-01      0.126089D-01
   zyz       -0.732066D+00     -0.632448D-02     -0.234727D-02
   zzz        0.140093D+02      0.121030D+00      0.449189D-01

 ----------------------------------------------------------------------

 Test job not archived.
 1\1\GINC-GEO\SP\RB3LYP\6-311G(d,p)\H2O1\PISKULIC\10-Mar-2024\0\\#n b3l
 yp/6-311G(d,p) empiricaldispersion=gd3 Charge Polar\\Water Scan\\0,1\O
 ,0,19.39713,11.25293,17.18843\H,0,19.44837,10.84306,17.93132\H,0,20.22
 713,11.07293,16.63843\\Version=ES64L-G16RevB.01\State=1-A'\HF=-76.4289
 573\RMSD=9.953e-09\Dipole=0.6146509,-0.4379655,0.186243\Polar=6.169515
 5,-0.4161456,4.413125,-1.5136474,-0.299632,6.2537814\HyperPolar=19.038
 6223,-3.6477697,1.9967137,-8.2444331,-7.6675907,2.3637223,3.1662867,9.
 0550304,-6.7695518,8.2050456\Quadrupole=0.0174399,-0.7032473,0.6858074
 ,-0.1351242,-0.8224627,-0.3985279\PG=CS [SG(H2O1)]\\@


 NO SCIENCE HAS EVER MADE MORE RAPID PROGRESS IN A
 SHORTER TIME THAN CHEMISTRY.
   -- MARTIN HEINRICH KLOPROTH, 1791
 (FIRST PROFESSOR OF CHEMISTRY AT THE UNIVERSITY OF BERLIN)
 Job cpu time:       0 days  0 hours  0 minutes  1.6 seconds.
 Elapsed time:       0 days  0 hours  0 minutes  1.5 seconds.
 File lengths (MBytes):  RWF=     17 Int=      0 D2E=      0 Chk=      2 Scr=      2
 Normal termination of Gaussian 16 at Sun Mar 10 21:53:21 2024.
 Initial command:
 /usr/local/apps/gaussian-16.B.01/avx2/g16/l1.exe "/projectnb/cui-buchem/piskulic/Projects/empmap/trr_map/test_dir/Gau-2387804.inp" -scrdir="/projectnb/cui-buchem/piskulic/Projects/empmap/trr_map/test_dir/"
 Entering Link 1 = /usr/local/apps/gaussian-16.B.01/avx2/g16/l1.exe PID=   2387830.
  
 Copyright (c) 1988-2017, Gaussian, Inc.  All Rights Reserved.
  
 This is part of the Gaussian(R) 16 program.  It is based on
 the Gaussian(R) 09 system (copyright 2009, Gaussian, Inc.),
 the Gaussian(R) 03 system (copyright 2003, Gaussian, Inc.),
 the Gaussian(R) 98 system (copyright 1998, Gaussian, Inc.),
 the Gaussian(R) 94 system (copyright 1995, Gaussian, Inc.),
 the Gaussian 92(TM) system (copyright 1992, Gaussian, Inc.),
 the Gaussian 90(TM) system (copyright 1990, Gaussian, Inc.),
 the Gaussian 88(TM) system (copyright 1988, Gaussian, Inc.),
 the Gaussian 86(TM) system (copyright 1986, Carnegie Mellon
 University), and the Gaussian 82(TM) system (copyright 1983,
 Carnegie Mellon University). Gaussian is a federally registered
 trademark of Gaussian, Inc.
  
 This software contains proprietary and confidential information,
 including trade secrets, belonging to Gaussian, Inc.
  
 This software is provided under written license and may be
 used, copied, transmitted, or stored only in accord with that
 written license.
  
 The following legend is applicable only to US Government
 contracts under FAR:
  
                    RESTRICTED RIGHTS LEGEND
  
 Use, reproduction and disclosure by the US Government is
 subject to restrictions as set forth in subparagraphs (a)
 and (c) of the Commercial Computer Software - Restricted
 Rights clause in FAR 52.227-19.
  
 Gaussian, Inc.
 340 Quinnipiac St., Bldg. 40, Wallingford CT 06492
  
  
 ---------------------------------------------------------------
 Warning -- This program may not be used in any manner that
 competes with the business of Gaussian, Inc. or will provide
 assistance to any competitor of Gaussian, Inc.  The licensee
 of this program is prohibited from giving any competitor of
 Gaussian, Inc. access to this program.  By using this program,
 the user acknowledges that Gaussian, Inc. is engaged in the
 business of creating and licensing software in the field of
 computational chemistry and represents and warrants to the
 licensee that it is not a competitor of Gaussian, Inc. and that
 it will not use this program in any manner prohibited above.
 ---------------------------------------------------------------
  

 Cite this work as:
 Gaussian 16, Revision B.01,
 M. J. Frisch, G. W. Trucks, H. B. Schlegel, G. E. Scuseria, 
 M. A. Robb, J. R. Cheeseman, G. Scalmani, V. Barone, 
 G. A. Petersson, H. Nakatsuji, X. Li, M. Caricato, A. V. Marenich, 
 J. Bloino, B. G. Janesko, R. Gomperts, B. Mennucci, H. P. Hratchian, 
 J. V. Ortiz, A. F. Izmaylov, J. L. Sonnenberg, D. Williams-Young, 
 F. Ding, F. Lipparini, F. Egidi, J. Goings, B. Peng, A. Petrone, 
 T. Henderson, D. Ranasinghe, V. G. Zakrzewski, J. Gao, N. Rega, 
 G. Zheng, W. Liang, M. Hada, M. Ehara, K. Toyota, R. Fukuda, 
 J. Hasegawa, M. Ishida, T. Nakajima, Y. Honda, O. Kitao, H. Nakai, 
 T. Vreven, K. Throssell, J. A. Montgomery, Jr., J. E. Peralta, 
 F. Ogliaro, M. J. Bearpark, J. J. Heyd, E. N. Brothers, K. N. Kudin, 
 V. N. Staroverov, T. A. Keith, R. Kobayashi, J. Normand, 
 K. Raghavachari, A. P. Rendell, J. C. Burant, S. S. Iyengar, 
 J. Tomasi, M. Cossi, J. M. Millam, M. Klene, C. Adamo, R. Cammi, 
 J. W. Ochterski, R. L. Martin, K. Morokuma, O. Farkas, 
 J. B. Foresman, and D. J. Fox, Gaussian, Inc., Wallingford CT, 2016.
 
 ******************************************
 Gaussian 16:  ES64L-G16RevB.01 20-Dec-2017
                10-Mar-2024 
 ******************************************
 ---------------------------------------------------------
 #n b3lyp/6-311G(d,p) empiricaldispersion=gd3 Charge Polar
 ---------------------------------------------------------
 1/18=10,28=-2,38=1,125=101,172=1/1;
 2/12=2,17=6,18=5,40=1/2;
 3/5=4,6=6,7=101,11=2,25=1,30=1,74=-5,124=31/1,2,3;
 4//1;
 5/5=2,38=5,98=1/2;
 8/6=4,10=90,11=11/1;
 10/6=1,13=10/2;
 6/7=2,8=2,9=2,10=2,28=1/1;
 99/5=1,9=1/99;
 ----------
 Water Scan
 ----------
 Symbolic Z-matrix:
 Charge =  0 Multiplicity = 1
 O                     19.3968   11.25563   17.18354 
 H                     19.45406   10.79754   18.01383 
 H                     20.2268   11.07563   16.63354 
 
 Background charge distribution read from input stream:
                          Input orientation:                          
 ---------------------------------------------------------------------
 Center     Atomic      Atomic             Coordinates (Angstroms)
 Number     Number       Type             X           Y           Z
 ---------------------------------------------------------------------
      1          8           0       19.396800   11.255630   17.183540
      2          1           0       19.454060   10.797540   18.013830
      3          1           0       20.226800   11.075630   16.633540
 ---------------------------------------------------------------------
                    Distance matrix (angstroms):
                    1          2          3
     1  O    0.000000
     2  H    0.950003   0.000000
     3  H    1.011830   1.606133   0.000000
 Stoichiometry    H2O
 Framework group  CS[SG(H2O)]
 Deg. of freedom     3
 Full point group                 CS      NOp   2
 Largest Abelian subgroup         CS      NOp   2
 Largest concise Abelian subgroup C1      NOp   1
                         Standard orientation:                         
 ---------------------------------------------------------------------
 Center     Atomic      Atomic             Coordinates (Angstroms)
 Number     Number       Type             X           Y           Z
 ---------------------------------------------------------------------
      1          8           0        0.000000    0.112825   -0.000000
      2          1           0        0.801265   -0.397548    0.000000
      3          1           0       -0.801265   -0.505053    0.000000
 ---------------------------------------------------------------------
 Rotational constants (GHZ):         894.2348084         387.4301308         270.3151956
 Standard basis: 6-311G(d,p) (5D, 7F)
 There are    24 symmetry adapted cartesian basis functions of A'  symmetry.
 There are     7 symmetry adapted cartesian basis functions of A"  symmetry.
 There are    23 symmetry adapted basis functions of A'  symmetry.
 There are     7 symmetry adapted basis functions of A"  symmetry.
    30 basis functions,    48 primitive gaussians,    31 cartesian basis functions
     5 alpha electrons        5 beta electrons
       nuclear repulsion energy         8.9696074859 Hartrees.
 NAtoms=    3 NActive=    3 NUniq=    3 SFac= 1.00D+00 NAtFMM=   60 NAOKFM=F Big=F
 Integral buffers will be    131072 words long.
 Raffenetti 2 integral format.
 Two-electron integral symmetry is turned on.
 Nuclear repulsion after empirical dispersion term =        8.9695951645 Hartrees.
 One-electron integrals computed using PRISM.
 NBasis=    30 RedAO= T EigKep=  2.02D-02  NBF=    23     7
 NBsUse=    30 1.00D-06 EigRej= -1.00D+00 NBFU=    23     7
 ExpMin= 1.03D-01 ExpMax= 8.59D+03 ExpMxC= 1.30D+03 IAcc=3 IRadAn=         5 AccDes= 0.00D+00
 Harris functional with IExCor=  402 and IRadAn=       5 diagonalized for initial guess.
 HarFok:  IExCor=  402 AccDes= 0.00D+00 IRadAn=         5 IDoV= 1 UseB2=F ITyADJ=14
 ICtDFT=  3500011 ScaDFX=  1.000000  1.000000  1.000000  1.000000
 FoFCou: FMM=F IPFlag=           0 FMFlag=      100000 FMFlg1=           0
         NFxFlg=           0 DoJE=T BraDBF=F KetDBF=T FulRan=T
         wScrn=  0.000000 ICntrl=       500 IOpCl=  0 I1Cent=   200000004 NGrid=           0
         NMat0=    1 NMatS0=      1 NMatT0=    0 NMatD0=    1 NMtDS0=    0 NMtDT0=    0
 Petite list used in FoFCou.
 Initial guess orbital symmetries:
       Occupied  (A') (A') (A') (A') (A")
       Virtual   (A') (A') (A') (A') (A') (A") (A') (A') (A") (A')
                 (A") (A') (A') (A') (A') (A') (A") (A") (A') (A')
                 (A') (A") (A') (A') (A')
 The electronic state of the initial guess is 1-A'.
 Keep R1 ints in memory in symmetry-blocked form, NReq=973774.
 Requested convergence on RMS density matrix=1.00D-08 within 128 cycles.
 Requested convergence on MAX density matrix=1.00D-06.
 Requested convergence on             energy=1.00D-06.
 No special actions if energy rises.
 Integral accuracy reduced to 1.0D-05 until final iterations.
 Initial convergence to 1.0D-05 achieved.  Increase integral accuracy.
 SCF Done:  E(RB3LYP) =  -76.4441009537     A.U. after    9 cycles
            NFock=  9  Conv=0.74D-08     -V/T= 2.0025
 DoSCS=F DFT=T ScalE2(SS,OS)=  1.000000  1.000000
 Range of M.O.s used for correlation:     1    30
 NBasis=    30 NAE=     5 NBE=     5 NFC=     0 NFV=     0
 NROrb=     30 NOA=     5 NOB=     5 NVA=    25 NVB=    25
          Differentiating once with respect to electric field.
                with respect to dipole field.
          Electric field/nuclear overlap derivatives assumed to be zero.
 Keep R1 ints in memory in symmetry-blocked form, NReq=972018.
          There are     3 degrees of freedom in the 1st order CPHF.  IDoFFX=0 NUNeed=     3.
      3 vectors produced by pass  0 Test12= 4.17D-15 3.33D-08 XBig12= 3.88D+00 1.28D+00.
 AX will form     3 AO Fock derivatives at one time.
      3 vectors produced by pass  1 Test12= 4.17D-15 3.33D-08 XBig12= 4.46D-01 3.45D-01.
      3 vectors produced by pass  2 Test12= 4.17D-15 3.33D-08 XBig12= 4.66D-02 8.73D-02.
      3 vectors produced by pass  3 Test12= 4.17D-15 3.33D-08 XBig12= 6.55D-04 8.72D-03.
      3 vectors produced by pass  4 Test12= 4.17D-15 3.33D-08 XBig12= 3.71D-06 7.09D-04.
      3 vectors produced by pass  5 Test12= 4.17D-15 3.33D-08 XBig12= 4.63D-09 2.44D-05.
      3 vectors produced by pass  6 Test12= 4.17D-15 3.33D-08 XBig12= 4.11D-12 7.61D-07.
 InvSVY:  IOpt=1 It=  1 EMax= 2.22D-16
 Solved reduced A of dimension    21 with     3 vectors.
 Isotropic polarizability for W=    0.000000        6.05 Bohr**3.
 End of Minotr F.D. properties file   721 does not exist.
 End of Minotr F.D. properties file   722 does not exist.
 End of Minotr F.D. properties file   788 does not exist.

 **********************************************************************

            Population analysis using the SCF Density.

 **********************************************************************

 Orbital symmetries:
       Occupied  (A') (A') (A') (A') (A")
       Virtual   (A') (A') (A') (A') (A') (A") (A') (A') (A") (A')
                 (A") (A') (A') (A') (A') (A') (A") (A") (A') (A')
                 (A') (A") (A') (A') (A')
 The electronic state is 1-A'.
 Alpha  occ. eigenvalues --  -19.10209  -0.99071  -0.52430  -0.36311  -0.29619
 Alpha virt. eigenvalues --    0.02491   0.10017   0.37066   0.40701   0.75992
 Alpha virt. eigenvalues --    0.76550   0.85657   1.06545   1.24863   1.33516
 Alpha virt. eigenvalues --    1.48529   1.60126   1.91643   2.01851   2.31755
 Alpha virt. eigenvalues --    2.45738   3.06057   3.16690   3.27609   3.61679
 Alpha virt. eigenvalues --    3.77671   4.76443   5.12222   5.59837  49.82909
          Condensed to atoms (all electrons):
               1          2          3
     1  O    7.876050   0.316986   0.305613
     2  H    0.316986   0.468572  -0.034807
     3  H    0.305613  -0.034807   0.479793
 Mulliken charges:
               1
     1  O   -0.498649
     2  H    0.249248
     3  H    0.249401
 Sum of Mulliken charges =   0.00000
 Mulliken charges with hydrogens summed into heavy atoms:
               1
     1  O    0.000000
 Electronic spatial extent (au):  <R**2>=             19.4341
 Charge=              0.0000 electrons
 Dipole moment (field-independent basis, Debye):
    X=              0.0532    Y=             -1.9908    Z=              0.0000  Tot=              1.9915
 Quadrupole moment (field-independent basis, Debye-Ang):
   XX=             -4.0360   YY=             -6.2148   ZZ=             -7.2478
   XY=              0.1748   XZ=              0.0000   YZ=              0.0000
 Traceless Quadrupole moment (field-independent basis, Debye-Ang):
   XX=              1.7969   YY=             -0.3819   ZZ=             -1.4150
   XY=              0.1748   XZ=              0.0000   YZ=              0.0000
 Octapole moment (field-independent basis, Debye-Ang**2):
  XXX=              0.1263  YYY=             -1.0707  ZZZ=              0.0000  XYY=             -0.0958
  XXY=             -1.2805  XXZ=              0.0000  XZZ=              0.0471  YZZ=             -0.2792
  YYZ=              0.0000  XYZ=              0.0000
 Hexadecapole moment (field-independent basis, Debye-Ang**3):
 XXXX=             -6.1560 YYYY=             -6.4564 ZZZZ=             -5.3783 XXXY=             -0.0323
 XXXZ=              0.0000 YYYX=             -0.0366 YYYZ=              0.0000 ZZZX=              0.0000
 ZZZY=              0.0000 XXYY=             -1.8165 XXZZ=             -2.2696 YYZZ=             -2.0204
 XXYZ=              0.0000 YYXZ=              0.0000 ZZXY=             -0.0550
 N-N= 8.969595164512D+00 E-N=-1.990967954815D+02  KE= 7.625190206657D+01
 Symmetry A'   KE= 7.158602569583D+01
 Symmetry A"   KE= 4.665876370739D+00
  Exact polarizability:   8.320   0.477   5.859  -0.000  -0.000   3.972
 Approx polarizability:  10.376   0.706   7.090  -0.000  -0.000   4.200

 ----------------------------------------------------------------------

 Electric dipole moment (input orientation):
 (Debye = 10**-18 statcoulomb cm , SI units = C m)
                  (au)            (Debye)         (10**-30 SI)
   Tot        0.783522D+00      0.199151D+01      0.664298D+01
   x          0.606963D+00      0.154275D+01      0.514604D+01
   y         -0.447391D+00     -0.113715D+01     -0.379314D+01
   z          0.212943D+00      0.541246D+00      0.180540D+01

 Dipole polarizability, Alpha (input orientation).
 (esu units = cm**3 , SI units = C**2 m**2 J**-1)
 Alpha(0;0):
               (au)            (10**-24 esu)      (10**-40 SI)
   iso        0.605057D+01      0.896602D+00      0.997604D+00
   aniso      0.386555D+01      0.572816D+00      0.637344D+00
   xx         0.626277D+01      0.928046D+00      0.103259D+01
   yx        -0.480588D+00     -0.712157D-01     -0.792382D-01
   yy         0.465628D+01      0.689990D+00      0.767717D+00
   zx        -0.154903D+01     -0.229543D+00     -0.255401D+00
   zy        -0.810653D+00     -0.120126D+00     -0.133659D+00
   zz         0.723266D+01      0.107177D+01      0.119250D+01

 First dipole hyperpolarizability, Beta (input orientation).
 ||, _|_  parallel and perpendicular components, (z) with respect to z axis,
 vector components x,y,z.  Values do not include the 1/n! factor of 1/2.
 (esu units = statvolt**-1 cm**4 , SI units = C**3 m**3 J**-2)
 Beta(0;0,0):
               (au)            (10**-30 esu)      (10**-50 SI)
   || (z)     0.542000D+01      0.468246D-01      0.173785D-01
   _|_(z)     0.180667D+01      0.156082D-01      0.579283D-02
   x          0.978797D+02      0.845605D+00      0.313838D+00
   y         -0.684309D+02     -0.591190D+00     -0.219414D+00
   z          0.271000D+02      0.234123D+00      0.868925D-01
   ||         0.244930D+02      0.211600D+00      0.785333D-01
   xxx        0.203641D+02      0.175930D+00      0.652947D-01
   xxy       -0.344772D+01     -0.297856D-01     -0.110546D-01
   yxy        0.240562D+01      0.207826D-01      0.771327D-02
   yyy       -0.891041D+01     -0.769790D-01     -0.285700D-01
   xxz       -0.858067D+01     -0.741303D-01     -0.275127D-01
   yxz        0.229682D+01      0.198428D-01      0.736445D-02
   yyz        0.447045D+01      0.386212D-01      0.143339D-01
   zxz        0.985687D+01      0.851557D-01      0.316047D-01
   zyz       -0.104522D+02     -0.902986D-01     -0.335134D-01
   zzz        0.131436D+02      0.113550D+00      0.421430D-01

 ----------------------------------------------------------------------

 Dipole orientation:
     8          1.60184143         47.10740966         25.07482409
     1          0.14245066         47.39721744         26.07936365
     1          3.11705433         46.80651664         26.20161130

 Electric dipole moment (dipole orientation):
 (Debye = 10**-18 statcoulomb cm , SI units = C m)
                  (au)            (Debye)         (10**-30 SI)
   Tot        0.783522D+00      0.199151D+01      0.664298D+01
   x          0.000000D+00      0.000000D+00      0.000000D+00
   y          0.000000D+00      0.000000D+00      0.000000D+00
   z          0.783522D+00      0.199151D+01      0.664298D+01

 Dipole polarizability, Alpha (dipole orientation).
 (esu units = cm**3 , SI units = C**2 m**2 J**-1)
 Alpha(0;0):
               (au)            (10**-24 esu)      (10**-40 SI)
   iso        0.605057D+01      0.896602D+00      0.997604D+00
   aniso      0.386555D+01      0.572816D+00      0.637344D+00
   xx         0.817825D+01      0.121189D+01      0.134841D+01
   yx        -0.835188D+00     -0.123762D+00     -0.137704D+00
   yy         0.413833D+01      0.613237D+00      0.682318D+00
   zx         0.402316D+00      0.596171D-01      0.663329D-01
   zy        -0.798924D-01     -0.118388D-01     -0.131725D-01
   zz         0.583514D+01      0.864678D+00      0.962084D+00

 First dipole hyperpolarizability, Beta (dipole orientation).
 ||, _|_  parallel and perpendicular components, (z) with respect to z axis,
 vector components x,y,z.  Values do not include the 1/n! factor of 1/2.
 (esu units = statvolt**-1 cm**4 , SI units = C**3 m**3 J**-2)
 Beta(0;0,0):
               (au)            (10**-30 esu)      (10**-50 SI)
   || (z)     0.244525D+02      0.211251D+00      0.784036D-01
   _|_(z)     0.815084D+01      0.704169D-01      0.261345D-01
   x          0.690059D+01      0.596157D-01      0.221258D-01
   y         -0.137033D+01     -0.118386D-01     -0.439377D-02
   z          0.122263D+03      0.105625D+01      0.392018D+00
   ||         0.244930D+02      0.211600D+00      0.785333D-01
   xxx        0.114461D+01      0.988856D-02      0.367004D-02
   xxy       -0.469327D+00     -0.405462D-02     -0.150483D-02
   yxy       -0.492164D+00     -0.425191D-02     -0.157806D-02
   yyy        0.339763D+00      0.293529D-02      0.108940D-02
   xxz        0.206052D+02      0.178013D+00      0.660676D-01
   yxz       -0.321683D+01     -0.277909D-01     -0.103143D-01
   yyz        0.504494D+01      0.435844D-01      0.161759D-01
   zxz        0.164775D+01      0.142352D-01      0.528327D-02
   zyz       -0.327212D+00     -0.282686D-02     -0.104916D-02
   zzz        0.151041D+02      0.130488D+00      0.484292D-01

 ----------------------------------------------------------------------

 Test job not archived.
 1\1\GINC-GEO\SP\RB3LYP\6-311G(d,p)\H2O1\PISKULIC\10-Mar-2024\0\\#n b3l
 yp/6-311G(d,p) empiricaldispersion=gd3 Charge Polar\\Water Scan\\0,1\O
 ,0,19.3968,11.25563,17.18354\H,0,19.45406,10.79754,18.01383\H,0,20.226
 8,11.07563,16.63354\\Version=ES64L-G16RevB.01\State=1-A'\HF=-76.444101
 \RMSD=7.412e-09\Dipole=0.6069626,-0.447391,0.2129428\Polar=6.2627678,-
 0.4805876,4.6562835,-1.5490341,-0.8106533,7.2326619\HyperPolar=20.3640
 985,-3.447719,2.4056153,-8.9104098,-8.5806729,2.2968244,4.4704516,9.85
 68667,-10.4521687,13.1435622\Quadrupole=-0.0488276,-0.7306279,0.779455
 6,-0.1346838,-0.8261838,-0.4799016\PG=CS [SG(H2O1)]\\@


 EVERY WORD THAT YOU WRITE IS A BLOW THAT SMITES THE DEVIL.
     -- ST. BERNARD OF CLAIRVAUX
 Job cpu time:       0 days  0 hours  0 minutes  1.5 seconds.
[...]
 Initial command:
 /usr/local/apps/gaussian-16.B.01/avx2/g16/l1.exe "/projectnb/cui-buchem/piskulic/Projects/empmap/trr_map/test_dir/Gau-2387804.inp" -scrdir="/projectnb/cui-buchem/piskulic/Projects/empmap/trr_map/test_dir/"
 Entering Link 1 = /usr/local/apps/gaussian-16.B.01/avx2/g16/l1.exe PID=   2387987.
  
 Copyright (c) 1988-2017, Gaussian, Inc.  All Rights Reserved.
  
 This is part of the Gaussian(R) 16 program.  It is based on
 the Gaussian(R) 09 system (copyright 2009, Gaussian, Inc.),
 the Gaussian(R) 03 system (copyright 2003, Gaussian, Inc.),
 the Gaussian(R) 98 system (copyright 1998, Gaussian, Inc.),
 the Gaussian(R) 94 system (copyright 1995, Gaussian, Inc.),
 the Gaussian 92(TM) system (copyright 1992, Gaussian, Inc.),
 the Gaussian 90(TM) system (copyright 1990, Gaussian, Inc.),
 the Gaussian 88(TM) system (copyright 1988, Gaussian, Inc.),
 the Gaussian 86(TM) system (copyright 1986, Carnegie Mellon
 University), and the Gaussian 82(TM) system (copyright 1983,
 Carnegie Mellon University). Gaussian is a federally registered
 trademark of Gaussian, Inc.
  
 This software contains proprietary and confidential information,
 including trade secrets, belonging to Gaussian, Inc.
  
 This software is provided under written license and may be
 used, copied, transmitted, or stored only in accord with that
 written license.
  
 The following legend is applicable only to US Government
 contracts under FAR:
  
                    RESTRICTED RIGHTS LEGEND
  
 Use, reproduction and disclosure by the US Government is
 subject to restrictions as set forth in subparagraphs (a)
 and (c) of the Commercial Computer Software - Restricted
 Rights clause in FAR 52.227-19.
  
 Gaussian, Inc.
 340 Quinnipiac St., Bldg. 40, Wallingford CT 06492
  
  
 ---------------------------------------------------------------
 Warning -- This program may not be used in any manner that
 competes with the business of Gaussian, Inc. or will provide
 assistance to any competitor of Gaussian, Inc.  The licensee
 of this program is prohibited from giving any competitor of
 Gaussian, Inc. access to this program.  By using this program,
 the user acknowledges that Gaussian, Inc. is engaged in the
 business of creating and licensing software in the field of
 computational chemistry and represents and warrants to the
 licensee that it is not a competitor of Gaussian, Inc. and that
 it will not use this program in any manner prohibited above.
 ---------------------------------------------------------------
  

 Cite this work as:
 Gaussian 16, Revision B.01,
 M. J. Frisch, G. W. Trucks, H. B. Schlegel, G. E. Scuseria, 
 M. A. Robb, J. R. Cheeseman, G. Scalmani, V. Barone, 
 G. A. Petersson, H. Nakatsuji, X. Li, M. Caricato, A. V. Marenich, 
 J. Bloino, B. G. Janesko, R. Gomperts, B. Mennucci, H. P. Hratchian, 
 J. V. Ortiz, A. F. Izmaylov, J. L. Sonnenberg, D. Williams-Young, 
 F. Ding, F. Lipparini, F. Egidi, J. Goings, B. Peng, A. Petrone, 
 T. Henderson, D. Ranasinghe, V. G. Zakrzewski, J. Gao, N. Rega, 
 G. Zheng, W. Liang, M. Hada, M. Ehara, K. Toyota, R. Fukuda, 
 J. Hasegawa, M. Ishida, T. Nakajima, Y. Honda, O. Kitao, H. Nakai, 
 T. Vreven, K. Throssell, J. A. Montgomery, Jr., J. E. Peralta, 
 F. Ogliaro, M. J. Bearpark, J. J. Heyd, E. N. Brothers, K. N. Kudin, 
 V. N. Staroverov, T. A. Keith, R. Kobayashi, J. Normand, 
 K. Raghavachari, A. P. Rendell, J. C. Burant, S. S. Iyengar, 
 J. Tomasi, M. Cossi, J. M. Millam, M. Klene, C. Adamo, R. Cammi, 
 J. W. Ochterski, R. L. Martin, K. Morokuma, O. Farkas, 
 J. B. Foresman, and D. J. Fox, Gaussian, Inc., Wallingford CT, 2016.
 
 ******************************************
 Gaussian 16:  ES64L-G16RevB.01 20-Dec-2017
                10-Mar-2024 
 ******************************************
 ---------------------------------------------------------
 #n b3lyp/6-311G(d,p) empiricaldispersion=gd3 Charge Polar
 ---------------------------------------------------------
 1/18=10,28=-2,38=1,125=101,172=1/1;
 2/12=2,17=6,18=5,40=1/2;
 3/5=4,6=6,7=101,11=2,25=1,30=1,74=-5,124=31/1,2,3;
 4//1;
 5/5=2,38=5,98=1/2;
 8/6=4,10=90,11=11/1;
 10/6=1,13=10/2;
 6/7=2,8=2,9=2,10=2,28=1/1;
 99/5=1,9=1/99;
 ----------
 Water Scan
 ----------
 Symbolic Z-matrix:
 Charge =  0 Multiplicity = 1
 O                     19.39275   11.28801   17.12486 
 H                     19.52234   10.25128   19.00393 
 H                     20.22275   11.10801   16.57486 
 
 Background charge distribution read from input stream:
                          Input orientation:                          
 ---------------------------------------------------------------------
 Center     Atomic      Atomic             Coordinates (Angstroms)
 Number     Number       Type             X           Y           Z
 ---------------------------------------------------------------------
      1          8           0       19.392750   11.288010   17.124860
      2          1           0       19.522340   10.251280   19.003930
      3          1           0       20.222750   11.108010   16.574860
 ---------------------------------------------------------------------
                    Distance matrix (angstroms):
                    1          2          3
     1  O    0.000000
     2  H    2.150002   0.000000
     3  H    1.011830   2.669259   0.000000
 Stoichiometry    H2O
 Framework group  CS[SG(H2O)]
 Deg. of freedom     3
 Full point group                 CS      NOp   2
 Largest Abelian subgroup         CS      NOp   2
 Largest concise Abelian subgroup C1      NOp   1
                         Standard orientation:                         
 ---------------------------------------------------------------------
 Center     Atomic      Atomic             Coordinates (Angstroms)
 Number     Number       Type             X           Y           Z
 ---------------------------------------------------------------------
      1          8           0       -0.000000    0.204149   -0.000000
      2          1           0        1.002188   -1.697988    0.000000
      3          1           0       -1.002188    0.064798   -0.000000
 ---------------------------------------------------------------------
 Rotational constants (GHZ):         621.3117008         108.8698933          92.6374194
 Standard basis: 6-311G(d,p) (5D, 7F)
 There are    24 symmetry adapted cartesian basis functions of A'  symmetry.
 There are     7 symmetry adapted cartesian basis functions of A"  symmetry.
 There are    23 symmetry adapted basis functions of A'  symmetry.
 There are     7 symmetry adapted basis functions of A"  symmetry.
    30 basis functions,    48 primitive gaussians,    31 cartesian basis functions
     5 alpha electrons        5 beta electrons
       nuclear repulsion energy         6.3512005975 Hartrees.
 NAtoms=    3 NActive=    3 NUniq=    3 SFac= 1.00D+00 NAtFMM=   60 NAOKFM=F Big=F
 Integral buffers will be    131072 words long.
 Raffenetti 2 integral format.
 Two-electron integral symmetry is turned on.
 Nuclear repulsion after empirical dispersion term =        6.3505819871 Hartrees.
 One-electron integrals computed using PRISM.
 NBasis=    30 RedAO= T EigKep=  3.74D-02  NBF=    23     7
 NBsUse=    30 1.00D-06 EigRej= -1.00D+00 NBFU=    23     7
 ExpMin= 1.03D-01 ExpMax= 8.59D+03 ExpMxC= 1.30D+03 IAcc=3 IRadAn=         5 AccDes= 0.00D+00
 Harris functional with IExCor=  402 and IRadAn=       5 diagonalized for initial guess.
 HarFok:  IExCor=  402 AccDes= 0.00D+00 IRadAn=         5 IDoV= 1 UseB2=F ITyADJ=14
 ICtDFT=  3500011 ScaDFX=  1.000000  1.000000  1.000000  1.000000
 FoFCou: FMM=F IPFlag=           0 FMFlag=      100000 FMFlg1=           0
         NFxFlg=           0 DoJE=T BraDBF=F KetDBF=T FulRan=T
         wScrn=  0.000000 ICntrl=       500 IOpCl=  0 I1Cent=   200000004 NGrid=           0
         NMat0=    1 NMatS0=      1 NMatT0=    0 NMatD0=    1 NMtDS0=    0 NMtDT0=    0
 Petite list used in FoFCou.
 Initial guess orbital symmetries:
       Occupied  (A') (A') (A') (A') (A")
       Virtual   (A') (A') (A') (A') (A") (A') (A') (A') (A') (A")
                 (A') (A") (A') (A') (A') (A') (A") (A') (A") (A')
                 (A') (A") (A') (A') (A')
 The electronic state of the initial guess is 1-A'.
 Keep R1 ints in memory in symmetry-blocked form, NReq=973768.
 Requested convergence on RMS density matrix=1.00D-08 within 128 cycles.
 Requested convergence on MAX density matrix=1.00D-06.
 Requested convergence on             energy=1.00D-06.
 No special actions if energy rises.
 Integral accuracy reduced to 1.0D-05 until final iterations.
 Initial convergence to 1.0D-05 achieved.  Increase integral accuracy.
 SCF Done:  E(RB3LYP) =  -76.2425417421     A.U. after   13 cycles
            NFock= 13  Conv=0.62D-08     -V/T= 2.0056
 DoSCS=F DFT=T ScalE2(SS,OS)=  1.000000  1.000000
 Range of M.O.s used for correlation:     1    30
 NBasis=    30 NAE=     5 NBE=     5 NFC=     0 NFV=     0
 NROrb=     30 NOA=     5 NOB=     5 NVA=    25 NVB=    25
          Differentiating once with respect to electric field.
                with respect to dipole field.
          Electric field/nuclear overlap derivatives assumed to be zero.
 Keep R1 ints in memory in symmetry-blocked form, NReq=972012.
          There are     3 degrees of freedom in the 1st order CPHF.  IDoFFX=0 NUNeed=     3.
      3 vectors produced by pass  0 Test12= 4.17D-15 3.33D-08 XBig12= 5.65D+01 7.18D+00.
 AX will form     3 AO Fock derivatives at one time.
      3 vectors produced by pass  1 Test12= 4.17D-15 3.33D-08 XBig12= 1.73D+01 1.89D+00.
      3 vectors produced by pass  2 Test12= 4.17D-15 3.33D-08 XBig12= 1.33D+00 6.78D-01.
      3 vectors produced by pass  3 Test12= 4.17D-15 3.33D-08 XBig12= 2.62D-02 1.08D-01.
      3 vectors produced by pass  4 Test12= 4.17D-15 3.33D-08 XBig12= 1.16D-03 1.87D-02.
      3 vectors produced by pass  5 Test12= 4.17D-15 3.33D-08 XBig12= 2.38D-06 6.11D-04.
      3 vectors produced by pass  6 Test12= 4.17D-15 3.33D-08 XBig12= 3.54D-09 2.00D-05.
      1 vectors produced by pass  7 Test12= 4.17D-15 3.33D-08 XBig12= 5.41D-12 7.74D-07.
 InvSVY:  IOpt=1 It=  1 EMax= 2.66D-15
 Solved reduced A of dimension    22 with     3 vectors.
 Isotropic polarizability for W=    0.000000       15.46 Bohr**3.
 End of Minotr F.D. properties file   721 does not exist.
 End of Minotr F.D. properties file   722 does not exist.
 End of Minotr F.D. properties file   788 does not exist.

 **********************************************************************

            Population analysis using the SCF Density.

 **********************************************************************

 Orbital symmetries:
       Occupied  (A') (A') (A') (A') (A")
       Virtual   (A') (A') (A') (A') (A') (A") (A') (A') (A") (A')
                 (A') (A") (A') (A') (A') (A') (A") (A') (A') (A")
                 (A') (A") (A') (A') (A')
 The electronic state is 1-A'.
 Alpha  occ. eigenvalues --  -19.15102  -0.94162  -0.43147  -0.32049  -0.29582
 Alpha virt. eigenvalues --   -0.19071   0.04876   0.26063   0.37565   0.75619
 Alpha virt. eigenvalues --    0.76624   0.78528   1.00664   1.26656   1.28034
 Alpha virt. eigenvalues --    1.28880   1.35210   1.53245   1.89499   2.18152
 Alpha virt. eigenvalues --    2.38432   2.82125   2.83298   3.06987   3.08974
 Alpha virt. eigenvalues --    3.67989   4.74189   4.78118   5.26205  49.69542
          Condensed to atoms (all electrons):
               1          2          3
     1  O    8.011538   0.114077   0.251757
     2  H    0.114077   0.758711  -0.002670
     3  H    0.251757  -0.002670   0.503425
 Mulliken charges:
               1
     1  O   -0.377371
     2  H    0.129883
     3  H    0.247488
 Sum of Mulliken charges =  -0.00000
 Mulliken charges with hydrogens summed into heavy atoms:
               1
     1  O   -0.000000
 Electronic spatial extent (au):  <R**2>=             31.4979
 Charge=             -0.0000 electrons
 Dipole moment (field-independent basis, Debye):
    X=             -0.9597    Y=             -1.5611    Z=              0.0000  Tot=              1.8325
 Quadrupole moment (field-independent basis, Debye-Ang):
   XX=             -4.6074   YY=             -4.6231   ZZ=             -8.0168
   XY=             -1.8367   XZ=              0.0000   YZ=             -0.0000
 Traceless Quadrupole moment (field-independent basis, Debye-Ang):
   XX=              1.1417   YY=              1.1260   ZZ=             -2.2677
   XY=             -1.8367   XZ=              0.0000   YZ=             -0.0000
 Octapole moment (field-independent basis, Debye-Ang**2):
  XXX=             -3.0204  YYY=             -1.9076  ZZZ=             -0.0000  XYY=              2.1807
  XXY=             -0.6661  XXZ=             -0.0000  XZZ=             -0.7508  YZZ=              0.8747
  YYZ=              0.0000  XYZ=             -0.0000
 Hexadecapole moment (field-independent basis, Debye-Ang**3):
 XXXX=            -12.7116 YYYY=            -18.5849 ZZZZ=             -6.7466 XXXY=              4.0653
 XXXZ=             -0.0000 YYYX=              0.5848 YYYZ=             -0.0000 ZZZX=             -0.0000
 ZZZY=              0.0000 XXYY=             -4.0479 XXZZ=             -3.8243 YYZZ=             -5.7941
 XXYZ=             -0.0000 YYXZ=              0.0000 ZZXY=              2.0295
 N-N= 6.350581987121D+00 E-N=-1.934175370962D+02  KE= 7.581718163585D+01
 Symmetry A'   KE= 7.097131496092D+01
 Symmetry A"   KE= 4.845866674926D+00
  Exact polarizability:  16.205 -13.354  26.820   0.000  -0.000   3.344
 Approx polarizability:  37.297 -51.069 101.545   0.000  -0.000   3.335

 ----------------------------------------------------------------------

 Electric dipole moment (input orientation):
 (Debye = 10**-18 statcoulomb cm , SI units = C m)
                  (au)            (Debye)         (10**-30 SI)
   Tot        0.720975D+00      0.183253D+01      0.611268D+01
   x          0.576726D+00      0.146589D+01      0.488969D+01
   y         -0.402589D+00     -0.102328D+01     -0.341330D+01
   z          0.158472D+00      0.402796D+00      0.134358D+01

 Dipole polarizability, Alpha (input orientation).
 (esu units = cm**3 , SI units = C**2 m**2 J**-1)
 Alpha(0;0):
               (au)            (10**-24 esu)      (10**-40 SI)
   iso        0.154565D+02      0.229041D+01      0.254843D+01
   aniso      0.308145D+02      0.456624D+01      0.508063D+01
   xx         0.643862D+01      0.954106D+00      0.106159D+01
   yx        -0.847219D+00     -0.125545D+00     -0.139688D+00
   yy         0.102639D+02      0.152096D+01      0.169230D+01
   zx        -0.170706D+01     -0.252960D+00     -0.281456D+00
   zy        -0.125607D+02     -0.186130D+01     -0.207098D+01
   zz         0.296668D+02      0.439617D+01      0.489140D+01

 First dipole hyperpolarizability, Beta (input orientation).
 ||, _|_  parallel and perpendicular components, (z) with respect to z axis,
 vector components x,y,z.  Values do not include the 1/n! factor of 1/2.
 (esu units = statvolt**-1 cm**4 , SI units = C**3 m**3 J**-2)
 Beta(0;0,0):
               (au)            (10**-30 esu)      (10**-50 SI)
   || (z)     0.107861D+02      0.931832D-01      0.345840D-01
   _|_(z)     0.359535D+01      0.310611D-01      0.115280D-01
   x          0.130711D+03      0.112924D+01      0.419106D+00
   y         -0.100491D+03     -0.868160D+00     -0.322209D+00
   z          0.539303D+02      0.465916D+00      0.172920D+00
   ||         0.346942D+02      0.299731D+00      0.111242D+00
   xxx        0.231025D+02      0.199587D+00      0.740749D-01
   xxy        0.294036D+01      0.254024D-01      0.942787D-02
   yxy        0.237369D+01      0.205068D-01      0.761091D-02
   yyy       -0.494213D+01     -0.426962D-01     -0.158463D-01
   xxz       -0.212862D+02     -0.183896D+00     -0.682513D-01
   yxz        0.144617D+01      0.124938D-01      0.463695D-02
   yyz        0.964917D+01      0.833613D-01      0.309387D-01
   zxz        0.180941D+02      0.156319D+00      0.580161D-01
   zyz       -0.314951D+02     -0.272093D+00     -0.100985D+00
   zzz        0.296138D+02      0.255840D+00      0.949526D-01

 ----------------------------------------------------------------------

 Dipole orientation:
     8         -0.65260139         47.36859795         24.51667177
     1         -4.09406171         47.98275565         26.58704189
     1          0.79992959         47.10938151         25.73282010

 Electric dipole moment (dipole orientation):
 (Debye = 10**-18 statcoulomb cm , SI units = C m)
                  (au)            (Debye)         (10**-30 SI)
   Tot        0.720975D+00      0.183253D+01      0.611268D+01
   x          0.000000D+00      0.000000D+00      0.000000D+00
   y          0.000000D+00      0.000000D+00      0.000000D+00
   z          0.720975D+00      0.183253D+01      0.611268D+01

 Dipole polarizability, Alpha (dipole orientation).
 (esu units = cm**3 , SI units = C**2 m**2 J**-1)
 Alpha(0;0):
               (au)            (10**-24 esu)      (10**-40 SI)
   iso        0.154565D+02      0.229041D+01      0.254843D+01
   aniso      0.308145D+02      0.456624D+01      0.508063D+01
   xx         0.301769D+02      0.447175D+01      0.497549D+01
   yx        -0.478846D+01     -0.709577D+00     -0.789511D+00
   yy         0.419904D+01      0.622233D+00      0.692328D+00
   zx        -0.105972D+02     -0.157034D+01     -0.174724D+01
   zy         0.189116D+01      0.280240D+00      0.311809D+00
   zz         0.119935D+02      0.177725D+01      0.197746D+01

 First dipole hyperpolarizability, Beta (dipole orientation).
 ||, _|_  parallel and perpendicular components, (z) with respect to z axis,
 vector components x,y,z.  Values do not include the 1/n! factor of 1/2.
 (esu units = statvolt**-1 cm**4 , SI units = C**3 m**3 J**-2)
 Beta(0;0,0):
               (au)            (10**-30 esu)      (10**-50 SI)
   || (z)     0.345053D+02      0.298099D+00      0.110636D+00
   _|_(z)     0.115018D+02      0.993662D-01      0.368788D-01
   x         -0.177957D+02     -0.153741D+00     -0.570594D-01
   y          0.317579D+01      0.274364D-01      0.101827D-01
   z          0.172526D+03      0.149049D+01      0.553182D+00
   ||         0.346942D+02      0.299731D+00      0.111242D+00
   xxx       -0.101275D+02     -0.874940D-01     -0.324725D-01
   xxy        0.436664D+01      0.377244D-01      0.140010D-01
   yxy        0.616294D+01      0.532430D-01      0.197606D-01
   yyy       -0.365912D+01     -0.316120D-01     -0.117325D-01
   xxz        0.458805D+02      0.396371D+00      0.147109D+00
   yxz       -0.786603D+01     -0.679564D-01     -0.252213D-01
   yyz        0.320658D+01      0.277023D-01      0.102814D-01
   zxz       -0.196729D+01     -0.169959D-01     -0.630786D-02
   zyz        0.351080D+00      0.303306D-02      0.112569D-02
   zzz        0.842176D+01      0.727575D-01      0.270032D-01

 ----------------------------------------------------------------------

 Test job not archived.
 1\1\GINC-GEO\SP\RB3LYP\6-311G(d,p)\H2O1\PISKULIC\10-Mar-2024\0\\#n b3l
 yp/6-311G(d,p) empiricaldispersion=gd3 Charge Polar\\Water Scan\\0,1\O
 ,0,19.39275,11.28801,17.12486\H,0,19.52234,10.25128,19.00393\H,0,20.22
 275,11.10801,16.57486\\Version=ES64L-G16RevB.01\State=1-A'\HF=-76.2425
 417\RMSD=6.165e-09\Dipole=0.5767261,-0.4025894,0.1584721\Polar=6.43862
 44,-0.8472188,10.2639441,-1.7070579,-12.5606894,29.6668462\HyperPolar=
 23.1024797,2.9403633,2.3736909,-4.9421305,-21.286209,1.4461727,9.64916
 6,18.0940687,-31.4950959,29.6138161\Quadrupole=-0.6327255,-0.9234592,1
 .5561847,-0.2109805,-0.7319093,-1.2565553\PG=CS [SG(H2O1)]\\@


 I SUPPOSE A BABY LLAMA HAS A MMAMA AND A PPOPA.
     -- RICHARD AMOUR
 Job cpu time:       0 days  0 hours  0 minutes  1.7 seconds.
 Elapsed time:       0 days  0 hours  0 minutes  1.7 seconds.
 File lengths (MBytes):  RWF=     17 Int=      0 D2E=      0 Chk=      2 Scr=      2
 Normal termination of Gaussian 16 at Sun Mar 10 21:53:44 2024.
